------------------------------------------------------------
          Invoking FHI-aims ...

          When using FHI-aims, please cite the following reference:

            Volker Blum, Ralf Gehrke, Felix Hanke, Paula Havu,
            Ville Havu, Xinguo Ren, Karsten Reuter, and Matthias Scheffler,
            'Ab Initio Molecular Simulations with Numeric Atom-Centered Orbitals',
            Computer Physics Communications 180, 2175-2196 (2009)

          In addition, many other developments in FHI-aims are likely important for
          your particular application. If so, please cite them. A partial list of references
          is written at the end of this file. Thank you for giving credit to the authors
          of these developments.

          For general information about FHI-aims please find us at

            https://fhi-aims.org

          Online tutorials can be found at

            https://fhi-aims-club.gitlab.io/tutorials/tutorials-overview/

          For any questions about FHI-aims, please visit our slack channel at

            https://fhi-aims.slack.com

          and our main development and support site at

            https://aims-git.rz-berlin.mpg.de .

          The latter site, in particular, has a wiki to collect information, as well
          as an issue tracker to log discussions, suggest improvements, and report issues
          or bugs. https://aims-git.rz-berlin.mpg.de is also the main development site
          of the project and all new and updated code versions can be obtained there.
          Please send an email to aims-coordinators@fhi-berlin.mpg.de and we will add
          you to these sites. They are for you and everyone is welcome there.

------------------------------------------------------------



  Date     :  20240229, Time     :  171434.303
  Time zero on CPU 1             :   0.108232000000000E+00  s.
  Internal wall clock time zero  :           478458874.303  s.

  FHI-aims created a unique identifier for this run for later identification
  aims_uuid : BC0EE7B7-8524-48D4-AEFE-81CEBA3F66B1

  Build configuration of the current instance of FHI-aims
  -------------------------------------------------------
  FHI-aims version      : 230629
  Commit number         : 1bccf0f48
  CMake host system     : Linux-5.14.21-150400.24.66-default
  CMake version         : 3.26.4
  Fortran compiler      : /mpcdf/soft/SLE_15/packages/x86_64/intel_oneapi/2022.3/mpi/2021.7.1/bin/mpiifort (Intel) version 2021.7.0.20221019
  Fortran compiler flags: -O3 -ip -fp-model precise
  C compiler            : /mpcdf/soft/SLE_15/packages/x86_64/intel_oneapi/2022.3/mpi/2021.7.1/bin/mpiicc (Intel) version 2021.7.0.20221019
  C compiler flags      : -O3 -ip -fp-model precise -std=gnu99
  C++ compiler          : /mpcdf/soft/SLE_15/packages/x86_64/intel/2021.7.1/bin/icpc (Intel) version 2021.7.0.20221019
  C++ compiler flags    : -O3 -ip -fp-model precise
  CUDA compiler         : nvcc
  CUDA compiler flags   : -O3 -DAdd_ -arch=sm_70 -lcublas
  HIP compiler          :
  HIP compiler flags    :
  HIP GPU arch          :
  ELPA2 kernel          : AVX512
  Using MPI
  Using ScaLAPACK
  Using LibXC
  Using i-PI
  Using RLSY
  Linking against: /mpcdf/soft/SLE_15/packages/x86_64/intel_oneapi/2022.3/mkl/latest/lib/intel64/libmkl_scalapack_lp64.so
                   /mpcdf/soft/SLE_15/packages/x86_64/intel_oneapi/2022.3/mkl/latest/lib/intel64/libmkl_blacs_intelmpi_lp64.so
                   /mpcdf/soft/SLE_15/packages/x86_64/intel_oneapi/2022.3/mkl/latest/lib/intel64/libmkl_intel_lp64.so
                   /mpcdf/soft/SLE_15/packages/x86_64/intel_oneapi/2022.3/mkl/latest/lib/intel64/libmkl_sequential.so
                   /mpcdf/soft/SLE_15/packages/x86_64/intel_oneapi/2022.3/mkl/latest/lib/intel64/libmkl_core.so
                   /mpcdf/soft/SLE_15/packages/x86_64/cuda/11.4.2/lib64/libcublas.so
                   /mpcdf/soft/SLE_15/packages/x86_64/cuda/11.4.2/lib64/libcudart.so

  Using       40 parallel tasks.
  Task        0 on host talos022 reporting.
  Task        1 on host talos022 reporting.
  Task        2 on host talos022 reporting.
  Task        3 on host talos022 reporting.
  Task        4 on host talos022 reporting.
  Task        5 on host talos022 reporting.
  Task        6 on host talos022 reporting.
  Task        7 on host talos022 reporting.
  Task        8 on host talos022 reporting.
  Task        9 on host talos022 reporting.
  Task       10 on host talos022 reporting.
  Task       11 on host talos022 reporting.
  Task       12 on host talos022 reporting.
  Task       13 on host talos022 reporting.
  Task       14 on host talos022 reporting.
  Task       15 on host talos022 reporting.
  Task       16 on host talos022 reporting.
  Task       17 on host talos022 reporting.
  Task       18 on host talos022 reporting.
  Task       19 on host talos022 reporting.
  Task       20 on host talos022 reporting.
  Task       21 on host talos022 reporting.
  Task       22 on host talos022 reporting.
  Task       23 on host talos022 reporting.
  Task       24 on host talos022 reporting.
  Task       25 on host talos022 reporting.
  Task       26 on host talos022 reporting.
  Task       27 on host talos022 reporting.
  Task       28 on host talos022 reporting.
  Task       29 on host talos022 reporting.
  Task       30 on host talos022 reporting.
  Task       31 on host talos022 reporting.
  Task       32 on host talos022 reporting.
  Task       33 on host talos022 reporting.
  Task       34 on host talos022 reporting.
  Task       35 on host talos022 reporting.
  Task       36 on host talos022 reporting.
  Task       37 on host talos022 reporting.
  Task       38 on host talos022 reporting.
  Task       39 on host talos022 reporting.

  Obtaining array dimensions for all initial allocations:
  
  -----------------------------------------------------------------------
  Parsing control.in (first pass over file, find array dimensions only).
  The contents of control.in will be repeated verbatim below
  unless switched off by setting 'verbatim_writeout .false.' .
  in the first line of control.in .
  -----------------------------------------------------------------------
  
  #===============================================================================
  # Created using the Atomic Simulation Environment (ASE)
  
  # Thu Feb 29 17:12:10 2024
  
  #===============================================================================
  xc                                 pbesol
  include_spin_orbit
  k_grid                             6 6 6
  sc_accuracy_rho                    1e-06
  sc_accuracy_forces                 0.0001
  relativistic                       atomic_zora scalar
  walltime                           40000.0
  sc_init_iter                       200
  output                             band   0.00000  0.00000  0.00000 0.0 0.0 0.0 2
  output                             band  -0.01699  0.00000  0.00000 0.0 0.0 0.0 2
  output                             band   0.01699  0.00000  0.00000 0.0 0.0 0.0 2
  output                             band   0.00000 -0.01699  0.00000 0.0 0.0 0.0 2
  output                             band   0.00000  0.01699  0.00000 0.0 0.0 0.0 2
  output                             band   0.00000  0.00000 -0.01699 0.0 0.0 0.0 2
  output                             band   0.00000  0.00000  0.01699 0.0 0.0 0.0 2
  output                             band  -0.01699 -0.01699  0.00000 0.0 0.0 0.0 2
  output                             band   0.01699  0.01699  0.00000 0.0 0.0 0.0 2
  output                             band   0.01699 -0.01699  0.00000 0.0 0.0 0.0 2
  output                             band  -0.01699  0.01699  0.00000 0.0 0.0 0.0 2
  output                             band  -0.01699  0.00000 -0.01699 0.0 0.0 0.0 2
  output                             band   0.01699  0.00000  0.01699 0.0 0.0 0.0 2
  output                             band   0.01699  0.00000 -0.01699 0.0 0.0 0.0 2
  output                             band  -0.01699  0.00000  0.01699 0.0 0.0 0.0 2
  output                             band   0.00000 -0.01699 -0.01699 0.0 0.0 0.0 2
  output                             band   0.00000  0.01699  0.01699 0.0 0.0 0.0 2
  output                             band   0.00000  0.01699 -0.01699 0.0 0.0 0.0 2
  output                             band   0.00000 -0.01699  0.01699 0.0 0.0 0.0 2
  #===============================================================================
  
  ################################################################################
  #
  #  FHI-aims code project
  #  Volker Blum, 2018
  #
  #  Suggested "intermediate" defaults for Ga atom (to be pasted into control.in file)
  #
  #  2020/09/15 These "intermediate" settings are identical to past "tight" defaults
  #             and differ only in the "g" function that is now included in "tight".
  #
  ################################################################################
    species        Ga
  #     global species definitions
      nucleus             31
      mass                69.723
  #
      l_hartree           6
  #
      cut_pot             4.0          2.0  1.0
      basis_dep_cutoff    1e-4
  #
      radial_base         54 7.0
      radial_multiplier   2
      angular_grids       specified
        division   0.3498   50
        division   0.6591  110
        division   0.9587  194
        division   1.2234  302
        division   1.4453  434
  #      division   1.5860  590
  #      division   1.8791  770
  #      division   1.9525  974
  #      division   2.3801 1202
  #      outer_grid  1202
        outer_grid  434
  ################################################################################
  #
  #  Definition of "minimal" basis
  #
  ################################################################################
  #     valence basis states
      valence      4  s   2.
      valence      4  p   1.
      valence      3  d  10.
  #     ion occupancy
      ion_occ      4  s   1.
      ion_occ      3  p   6.
      ion_occ      3  d  10.
  ################################################################################
  #
  #  Suggested additional basis functions. For production calculations,
  #  uncomment them one after another (the most important basis functions are
  #  listed first).
  #
  #  Constructed for dimers: 1.85 A, 2.10 A, 2.45 A, 3.00 A, 4.00 A
  #
  ################################################################################
  #  "First tier" - improvements: -222.33 meV to -26.19 meV
       hydro 2 p 1.2
       hydro 3 d 3.8
       hydro 4 f 6.8
       ionic 4 s auto
  #  "Second tier" - improvements: -11.68 meV to -1.61 meV
  #     hydro 5 g 10
  #     hydro 4 p 3.6
  #     hydro 4 f 13.2
  #     hydro 6 h 14.4
  #     hydro 4 d 5.2
  #     hydro 1 s 0.45
  #  "Third tier" - improvements: -0.64 meV to -0.15 meV
  #     hydro 3 p 3.4
  #     hydro 3 s 2.2
  #     hydro 5 g 14
  #     hydro 4 f 6.2
  #     hydro 5 d 7.2
  #  "Fourth tier"  -improvements: -0.12 meV and below
  #     hydro 3 s 3.8
  #     hydro 5 f 27.2
  #     hydro 6 h 16
  #     hydro 5 g 9.2
  #     hydro 4 d 8.6
  #     hydro 2 p 3.6
  
  ################################################################################
  #
  #  FHI-aims code project
  #  Volker Blum, 2018
  #
  #  Suggested "intermediate" defaults for As atom (to be pasted into control.in file)
  #
  #  2020/09/15 These "intermediate" settings are identical to past "tight" defaults
  #             and differ only in the "g" function that is now included in "tight".
  #
  ################################################################################
    species        As
  #
      nucleus             33
      mass                74.92160
  #
      l_hartree           6
  #
      cut_pot             4.0          2.0  1.0
      basis_dep_cutoff    1e-4
  #
      radial_base         55 7.0
      radial_multiplier   2
      angular_grids       specified
        division   0.3346   50
        division   0.6815  110
        division   0.9821  194
        division   1.2024  302
        division   1.4689  434
  #      division   1.5802  590
  #      division   1.6697  770
  #      division   1.7649  974
  #      division   2.6635 1202
  #      outer_grid  1202
        outer_grid  434
  ################################################################################
  #
  #  Definition of "minimal" basis
  #
  ################################################################################
  #     valence basis states
      valence      4  s   2.
      valence      4  p   3.
      valence      3  d  10.
  #     ion occupancy
      ion_occ      4  s   1.
      ion_occ      4  p   2.
      ion_occ      3  d  10.
  ################################################################################
  #
  #  Suggested additional basis functions. For production calculations,
  #  uncomment them one after another (the most important basis functions are
  #  listed first).
  #
  #  Constructed for dimers: 1.75 A, 2.10 A, 2.50 A, 3.00 A, 4.00 A
  #
  ################################################################################
  #  "First tier" - improvements: -385.12 meV to -54.94 meV
       hydro 3 d 4
       hydro 2 p 1.5
       hydro 4 f 6.8
       ionic 4 s auto
  #  "Second tier" - improvements: -22.14 meV to -3.21 meV
  #     hydro 5 g 10
  #     hydro 6 h 13.6
  #     hydro 4 p 4.3
  #     hydro 4 f 15.6
  #     hydro 4 d 5.4
  #     hydro 1 s 0.6
  #  "Third tier" - improvements: -0.57 meV to -0.13 meV
  #     hydro 5 g 16.4
  #     hydro 4 f 7.4
  #     hydro 5 d 7.4
  #     ionic 4 p auto
  #     hydro 3 s 2.6
  #  "Fourth tier" - improvements: -0.30 meV and below
  #     hydro 3 p 3
  #     hydro 6 h 18.4
  #     hydro 5 d 11.2
  #     hydro 5 f 15.2
  #     hydro 5 g 13.6
  #     hydro 5 s 6.2
  
  -----------------------------------------------------------------------
  Completed first pass over input file control.in .
  -----------------------------------------------------------------------
  
  
  -----------------------------------------------------------------------
  Parsing geometry.in (first pass over file, find array dimensions only).
  The contents of geometry.in will be repeated verbatim below
  unless switched off by setting 'verbatim_writeout .false.' .
  in the first line of geometry.in .
  -----------------------------------------------------------------------
  
  #===============================================================================
  # Created using the Atomic Simulation Environment (ASE)
  
  # Thu Feb 29 17:12:10 2024
  
  #=======================================================
  lattice_vector 5.6479999999999997 0.0000000000000000 0.0000000000000000
  lattice_vector 0.0000000000000000 5.6479999999999997 0.0000000000000000
  lattice_vector 0.0000000000000000 0.0000000000000000 5.6479999999999997
  atom_frac 0.0000000000000000 0.0000000000000000 0.0000000000000000 Ga
  atom_frac 0.0000000000000000 0.5000000000000000 0.5000000000000000 Ga
  atom_frac 0.5000000000000000 0.5000000000000000 0.0000000000000000 Ga
  atom_frac 0.5000000000000000 0.0000000000000000 0.5000000000000000 Ga
  atom_frac 0.7500000000000000 0.2500000000000000 0.7500000000000000 As
  atom_frac 0.2500000000000000 0.2500000000000000 0.2500000000000000 As
  atom_frac 0.2500000000000000 0.7500000000000000 0.7500000000000000 As
  atom_frac 0.7500000000000000 0.7500000000000000 0.2500000000000000 As
  
  -----------------------------------------------------------------------
  Completed first pass over input file geometry.in .
  -----------------------------------------------------------------------
  

  Basic array size parameters:
  | Number of species                 :        2
  | Number of atoms                   :        8
  | Number of lattice vectors         :        3
  | Max. basis fn. angular momentum   :        3
  | Max. atomic/ionic basis occupied n:        4
  | Max. number of basis fn. types    :        3
  | Max. radial fns per species/type  :        8
  | Max. logarithmic grid size        :     1417
  | Max. radial integration grid size :      111
  | Max. angular integration grid size:      434
  | Max. angular grid division number :        8
  | Radial grid for Hartree potential :     1417
  | Number of spin channels           :        1

------------------------------------------------------------
          Reading file control.in.
------------------------------------------------------------
  XC: Using PBEsol gradient-corrected functionals.
  Calculating non-self-consistent second-variational spin-orbit coupling after scf-cycle
  Found k-point grid:         6         6         6
  Convergence accuracy of self-consistent charge density:  0.1000E-05
  Convergence accuracy of forces:  0.1000E-03
  Scalar relativistic treatment of kinetic energy: on-site free-atom approximation to ZORA.
  Requesting a walltime of    40000 seconds.
  Number of s.-c. iterations prior to a full restart of mixing :   200

  Plot band    1
  | begin  0.000000  0.000000  0.000000
  | end    0.000000  0.000000  0.000000
  | number of points:    2

  Plot band    2
  | begin -0.016990  0.000000  0.000000
  | end    0.000000  0.000000  0.000000
  | number of points:    2

  Plot band    3
  | begin  0.016990  0.000000  0.000000
  | end    0.000000  0.000000  0.000000
  | number of points:    2

  Plot band    4
  | begin  0.000000 -0.016990  0.000000
  | end    0.000000  0.000000  0.000000
  | number of points:    2

  Plot band    5
  | begin  0.000000  0.016990  0.000000
  | end    0.000000  0.000000  0.000000
  | number of points:    2

  Plot band    6
  | begin  0.000000  0.000000 -0.016990
  | end    0.000000  0.000000  0.000000
  | number of points:    2

  Plot band    7
  | begin  0.000000  0.000000  0.016990
  | end    0.000000  0.000000  0.000000
  | number of points:    2

  Plot band    8
  | begin -0.016990 -0.016990  0.000000
  | end    0.000000  0.000000  0.000000
  | number of points:    2

  Plot band    9
  | begin  0.016990  0.016990  0.000000
  | end    0.000000  0.000000  0.000000
  | number of points:    2

  Plot band   10
  | begin  0.016990 -0.016990  0.000000
  | end    0.000000  0.000000  0.000000
  | number of points:    2

  Plot band   11
  | begin -0.016990  0.016990  0.000000
  | end    0.000000  0.000000  0.000000
  | number of points:    2

  Plot band   12
  | begin -0.016990  0.000000 -0.016990
  | end    0.000000  0.000000  0.000000
  | number of points:    2

  Plot band   13
  | begin  0.016990  0.000000  0.016990
  | end    0.000000  0.000000  0.000000
  | number of points:    2

  Plot band   14
  | begin  0.016990  0.000000 -0.016990
  | end    0.000000  0.000000  0.000000
  | number of points:    2

  Plot band   15
  | begin -0.016990  0.000000  0.016990
  | end    0.000000  0.000000  0.000000
  | number of points:    2

  Plot band   16
  | begin  0.000000 -0.016990 -0.016990
  | end    0.000000  0.000000  0.000000
  | number of points:    2

  Plot band   17
  | begin  0.000000  0.016990  0.016990
  | end    0.000000  0.000000  0.000000
  | number of points:    2

  Plot band   18
  | begin  0.000000  0.016990 -0.016990
  | end    0.000000  0.000000  0.000000
  | number of points:    2

  Plot band   19
  | begin  0.000000 -0.016990  0.016990
  | end    0.000000  0.000000  0.000000
  | number of points:    2
 
  Reading configuration options for species Ga                  .
  | Found nuclear charge :  31.0000
  | Found atomic mass :    69.7230000000000      amu
  | Found l_max for Hartree potential  :   6
  | Found cutoff potl. onset [A], width [A], scale factor :    4.00000    2.00000    1.00000
  | Threshold for basis-dependent cutoff potential is   0.100000E-03
  | Found data for basic radial integration grid :    54 points, outermost radius =    7.000 A
  | Found multiplier for basic radial grid :   2
  | Found angular grid specification: user-specified.
  | Specified grid contains     6 separate shells.
  | Check grid settings after all constraints further below.
  | Found free-atom valence shell :  4 s   2.000
  | Found free-atom valence shell :  4 p   1.000
  | Found free-atom valence shell :  3 d  10.000
  | Found free-ion valence shell :  4 s   1.000
  | Found free-ion valence shell :  3 p   6.000
  | Found free-ion valence shell :  3 d  10.000
  | Found hydrogenic basis function :  2 p   1.200
  | Found hydrogenic basis function :  3 d   3.800
  | Found hydrogenic basis function :  4 f   6.800
  | Found ionic basis function :  4 s , default cutoff radius.
  Species Ga                  : Missing cutoff potential type.
  Defaulting to exp(1/x)/(1-x)^2 type cutoff potential.
  Species Ga: No 'logarithmic' tag. Using default grid for free atom:
  | Default logarithmic grid data [bohr] : 0.1000E-03 0.1000E+03 0.1012E+01
  | Will include ionic basis functions of  2.0-fold positive Ga                   ion.
  Species Ga: On-site basis accuracy parameter (for Gram-Schmidt orthonormalisation) not specified.
  Using default value basis_acc =  0.1000000E-03.
  Species Ga                  : Using default innermost maximum threshold i_radial=  2 for radial functions.
  Species Ga                  : Default cutoff onset for free atom density etc. : 0.40000000E+01 AA.
  Species Ga                  : Basic radial grid will be enhanced according to radial_multiplier =   2, to contain   109 grid points.
 
  Reading configuration options for species As                  .
  | Found nuclear charge :  33.0000
  | Found atomic mass :    74.9216000000000      amu
  | Found l_max for Hartree potential  :   6
  | Found cutoff potl. onset [A], width [A], scale factor :    4.00000    2.00000    1.00000
  | Threshold for basis-dependent cutoff potential is   0.100000E-03
  | Found data for basic radial integration grid :    55 points, outermost radius =    7.000 A
  | Found multiplier for basic radial grid :   2
  | Found angular grid specification: user-specified.
  | Specified grid contains     6 separate shells.
  | Check grid settings after all constraints further below.
  | Found free-atom valence shell :  4 s   2.000
  | Found free-atom valence shell :  4 p   3.000
  | Found free-atom valence shell :  3 d  10.000
  | Found free-ion valence shell :  4 s   1.000
  | Found free-ion valence shell :  4 p   2.000
  | Found free-ion valence shell :  3 d  10.000
  | Found hydrogenic basis function :  3 d   4.000
  | Found hydrogenic basis function :  2 p   1.500
  | Found hydrogenic basis function :  4 f   6.800
  | Found ionic basis function :  4 s , default cutoff radius.
  Species As                  : Missing cutoff potential type.
  Defaulting to exp(1/x)/(1-x)^2 type cutoff potential.
  Species As: No 'logarithmic' tag. Using default grid for free atom:
  | Default logarithmic grid data [bohr] : 0.1000E-03 0.1000E+03 0.1012E+01
  | Will include ionic basis functions of  2.0-fold positive As                   ion.
  Species As: On-site basis accuracy parameter (for Gram-Schmidt orthonormalisation) not specified.
  Using default value basis_acc =  0.1000000E-03.
  Species As                  : Using default innermost maximum threshold i_radial=  2 for radial functions.
  Species As                  : Default cutoff onset for free atom density etc. : 0.40000000E+01 AA.
  Species As                  : Basic radial grid will be enhanced according to radial_multiplier =   2, to contain   111 grid points.
 
  Finished reading input file 'control.in'.
 
------------------------------------------------------------


------------------------------------------------------------
          Reading geometry description geometry.in.
------------------------------------------------------------
  | The smallest distance between any two atoms is         2.44565574 AA.
  | The first atom of this pair is atom number                      1 .
  | The second atom of this pair is atom number                     6 .
  | Wigner-Seitz cell of the first atom image           0     0     0 .
  | (The Wigner-Seitz cell of the second atom is 0 0 0  by definition.)

  Symmetry information by spglib:
  | Precision set to  0.1E-04
  | Number of Operations  : 96
  | Space group           : 216
  | International         : F-43m
  | Schoenflies           : Td^2
  Input structure read successfully.
  The structure contains        8 atoms,  and a total of        256.000 electrons.

  Input geometry:
  | Unit cell:
  |        5.64800000        0.00000000        0.00000000
  |        0.00000000        5.64800000        0.00000000
  |        0.00000000        0.00000000        5.64800000
  | Atomic structure:
  |       Atom                x [A]            y [A]            z [A]
  |    1: Species Ga            0.00000000        0.00000000        0.00000000
  |    2: Species Ga            0.00000000        2.82400000        2.82400000
  |    3: Species Ga            2.82400000        2.82400000        0.00000000
  |    4: Species Ga            2.82400000        0.00000000        2.82400000
  |    5: Species As            4.23600000        1.41200000        4.23600000
  |    6: Species As            1.41200000        1.41200000        1.41200000
  |    7: Species As            1.41200000        4.23600000        4.23600000
  |    8: Species As            4.23600000        4.23600000        1.41200000

  Lattice parameters for 3D lattice (in Angstroms) :     5.648000    5.648000    5.648000
  Angle(s) between unit vectors (in degrees)       :    90.000000   90.000000   90.000000


  Quantities derived from the lattice vectors (in Angstrom^-1):
  | Reciprocal lattice vector 1:  1.112462  0.000000  0.000000
  | Reciprocal lattice vector 2:  0.000000  1.112462  0.000000
  | Reciprocal lattice vector 3:  0.000000  0.000000  1.112462
  | Unit cell volume                               :   0.180171E+03  Angstrom^3

  Fractional coordinates:
                         L1                L2                L3
       atom_frac         0.00000000        0.00000000        0.00000000  Ga
       atom_frac         0.00000000        0.50000000        0.50000000  Ga
       atom_frac         0.50000000        0.50000000        0.00000000  Ga
       atom_frac         0.50000000        0.00000000        0.50000000  Ga
       atom_frac         0.75000000        0.25000000        0.75000000  As
       atom_frac         0.25000000        0.25000000        0.25000000  As
       atom_frac         0.25000000        0.75000000        0.75000000  As
       atom_frac         0.75000000        0.75000000        0.25000000  As

 
  Finished reading input file 'geometry.in'.
 

 
  Consistency checks for stacksize environment parameter are next.
 
  | Maximum stacksize for task 0: unlimited
  | Maximum stacksize for task 1: unlimited
  | Maximum stacksize for task 2: unlimited
  | Maximum stacksize for task 3: unlimited
  | Maximum stacksize for task 4: unlimited
  | Maximum stacksize for task 5: unlimited
  | Maximum stacksize for task 6: unlimited
  | Maximum stacksize for task 7: unlimited
  | Maximum stacksize for task 8: unlimited
  | Maximum stacksize for task 9: unlimited
  | Maximum stacksize for task 10: unlimited
  | Maximum stacksize for task 11: unlimited
  | Maximum stacksize for task 12: unlimited
  | Maximum stacksize for task 13: unlimited
  | Maximum stacksize for task 14: unlimited
  | Maximum stacksize for task 15: unlimited
  | Maximum stacksize for task 16: unlimited
  | Maximum stacksize for task 17: unlimited
  | Maximum stacksize for task 18: unlimited
  | Maximum stacksize for task 19: unlimited
  | Maximum stacksize for task 20: unlimited
  | Maximum stacksize for task 21: unlimited
  | Maximum stacksize for task 22: unlimited
  | Maximum stacksize for task 23: unlimited
  | Maximum stacksize for task 24: unlimited
  | Maximum stacksize for task 25: unlimited
  | Maximum stacksize for task 26: unlimited
  | Maximum stacksize for task 27: unlimited
  | Maximum stacksize for task 28: unlimited
  | Maximum stacksize for task 29: unlimited
  | Maximum stacksize for task 30: unlimited
  | Maximum stacksize for task 31: unlimited
  | Maximum stacksize for task 32: unlimited
  | Maximum stacksize for task 33: unlimited
  | Maximum stacksize for task 34: unlimited
  | Maximum stacksize for task 35: unlimited
  | Maximum stacksize for task 36: unlimited
  | Maximum stacksize for task 37: unlimited
  | Maximum stacksize for task 38: unlimited
  | Maximum stacksize for task 39: unlimited
  | Current stacksize for task 0: unlimited
  | Current stacksize for task 1: unlimited
  | Current stacksize for task 2: unlimited
  | Current stacksize for task 3: unlimited
  | Current stacksize for task 4: unlimited
  | Current stacksize for task 5: unlimited
  | Current stacksize for task 6: unlimited
  | Current stacksize for task 7: unlimited
  | Current stacksize for task 8: unlimited
  | Current stacksize for task 9: unlimited
  | Current stacksize for task 10: unlimited
  | Current stacksize for task 11: unlimited
  | Current stacksize for task 12: unlimited
  | Current stacksize for task 13: unlimited
  | Current stacksize for task 14: unlimited
  | Current stacksize for task 15: unlimited
  | Current stacksize for task 16: unlimited
  | Current stacksize for task 17: unlimited
  | Current stacksize for task 18: unlimited
  | Current stacksize for task 19: unlimited
  | Current stacksize for task 20: unlimited
  | Current stacksize for task 21: unlimited
  | Current stacksize for task 22: unlimited
  | Current stacksize for task 23: unlimited
  | Current stacksize for task 24: unlimited
  | Current stacksize for task 25: unlimited
  | Current stacksize for task 26: unlimited
  | Current stacksize for task 27: unlimited
  | Current stacksize for task 28: unlimited
  | Current stacksize for task 29: unlimited
  | Current stacksize for task 30: unlimited
  | Current stacksize for task 31: unlimited
  | Current stacksize for task 32: unlimited
  | Current stacksize for task 33: unlimited
  | Current stacksize for task 34: unlimited
  | Current stacksize for task 35: unlimited
  | Current stacksize for task 36: unlimited
  | Current stacksize for task 37: unlimited
  | Current stacksize for task 38: unlimited
  | Current stacksize for task 39: unlimited
 
  Consistency checks for the contents of control.in are next.
 
  MPI_IN_PLACE appears to work with this MPI implementation.
  | Keeping use_mpi_in_place .true. (see manual).
  Target number of points in a grid batch is not set. Defaulting to  100
  Method for grid partitioning is not set. Defaulting to parallel hash+maxmin partitioning.
  Batch size limit is not set. Defaulting to    200
  By default, will store active basis functions for each batch.
  If in need of memory, prune_basis_once .false. can be used to disable this option.
  communication_type for Hartree potential was not specified.
  Defaulting to calc_hartree .
  Defaulting to Pulay charge density mixer.
  Pulay mixer: Number of relevant iterations not set.
  Defaulting to    8 iterations.
  Pulay mixer: Number of initial linear mixing iterations not set.
  Defaulting to    0 iterations.
  Work space size for distributed Hartree potential not set.
  Defaulting to   0.200000E+03 MB.
  Mixing parameter for charge density mixing has not been set.
  Using default: charge_mix_param =     0.0500.
  The mixing parameter will be adjusted in iteration number     2 of the first full s.c.f. cycle only.
  Algorithm-dependent basis array size parameters:
  | n_max_pulay                         :        8
  Maximum number of self-consistency iterations not provided.
  Presetting  1000 iterations.
  Presetting a factor      1.000 between actual scf density residual
  and density convergence criterion sc_accuracy_rho below which sc_init_iter
  takes no effect.
  Geometry relaxation not requested: no relaxation will be performed.
  Forces evaluation will include force correction term due to incomplete self-consistency (default).
  Handling of forces: Unphysical translation and rotation will be removed from forces.
  No accuracy limit for integral partition fn. given. Defaulting to  0.1000E-14.
  No threshold value for u(r) in integrations given. Defaulting to  0.1000E-05.
  No occupation type (smearing scheme) given. Defaulting to Gaussian broadening, width =  0.1000E-01 eV.
  The width will be adjusted in iteration number     2 of the first full s.c.f. cycle only.
  S.C.F. convergence parameters will be adjusted in iteration number     2 of the first full s.c.f. cycle only.
  No accuracy for occupation numbers given. Defaulting to  0.1000E-12.
  No threshold value for occupation numbers given. Defaulting to  0.0000E+00.
  No accuracy for fermi level given. Defaulting to  0.1000E-19.
  Maximum # of iterations to find E_F not set. Defaulting to  200.
  Preferred method for the eigenvalue solver ('KS_method') not specified in 'control.in'.
  Defaulting to serial version, LAPACK (via ELSI), since more k-points than CPUs available.
  Will not use alltoall communication since running on < 1024 CPUs.
  Threshold for basis singularities not set.
  Default threshold for basis singularities:  0.1000E-04
  partition_type (choice of integration weights) for integrals was not specified.
  | Using a version of the partition function of Stratmann and coworkers ('stratmann_sparse').
  | At each grid point, the set of atoms used to build the partition table is smoothly restricted to
  | only those atoms whose free-atom density would be non-zero at that grid point.
  Partitioning for Hartree potential was not defined. Using partition_type for integrals.
  | Adjusted default value of keyword multip_moments_threshold to:       0.10000000E-11
  | This value may affect high angular momentum components of the Hartree potential in periodic systems.
  Spin handling was not defined in control.in. Defaulting to unpolarized case.
  Angular momentum expansion for Kerker preconditioner not set explicitly.
  | Using default value of   0
  No explicit requirement for turning off preconditioner.
  | By default, it will be turned off when the charge convergence reaches
  | sc_accuracy_rho  =   0.100000E-05
  No special mixing parameter while Kerker preconditioner is on.
  Using default: charge_mix_param =     0.0500.
  No q(lm)/r^(l+1) cutoff set for long-range Hartree potential.
  | Using default value of  0.100000E-09 .
  | Verify using the multipole_threshold keyword.
  Defaulting to new monopole extrapolation.
  Density update method: automatic selection selected.
  Using density matrix based charge density update.
  Using density matrix based charge density update.
  Using packed matrix style: index .
  Defaulting to use time-reversal symmetry for k-point grid.
  Charge integration errors on the 3D integration grid will be compensated
  by explicit normalization and distribution of residual charges.
  Use the "compensate_multipole_errors" flag to change this behaviour.
  Set 'collect_eigenvectors' to be '.true.' for all serial calculations. This is mandatory.
  Set 'collect_eigenvectors' to be '.true.' for KS_method lapack_fast and serial.
 
  Consistency checks for the contents of geometry.in are next.
 

  Range separation radius for Ewald summation (hartree_convergence_parameter):      4.05960306 bohr.
  Number of empty states per atom not set in control.in - providing a guess from actual geometry.
  | Total number of empty states used during s.c.f. cycle:       44
  If you use a very high smearing, use empty_states (per atom!) in control.in to increase this value.
  * Since a DOS, bandstructure or SOC calculation was requested, the number of empty states requested was INCREASED.
  | Number of empty states (old):   88.00000
  | Number of empty states (new):   98.00000

  Structure-dependent array size parameters: 
  | Maximum number of distinct radial functions  :       24
  | Maximum number of basis functions            :      272
  | Number of Kohn-Sham states (occupied + empty):      177
------------------------------------------------------------
  After read_input_data [GB]:    180.96

  Performing system and environment tests:
  | Environment variable OMP_NUM_THREADS correctly set to 1.
  | Checking for ScaLAPACK...
  | Testing pdtran()...
  | All pdtran() tests passed.
  After prepare_system [GB]:    180.75

------------------------------------------------------------
          Preparing all fixed parts of the calculation.
------------------------------------------------------------
  Determining machine precision:
    2.225073858507201E-308
  Setting up grids for atomic and cluster calculations.

  Creating wave function, potential, and density for free atoms.
  Runtime choices for atomic solver:
  | atomic solver xc        : PBE
  | compute density gradient: 1
  | compute kinetic density : F

  Species: Ga

  List of occupied orbitals and eigenvalues:
    n    l              occ      energy [Ha]    energy [eV]
    1    0           2.0000      -380.499117    -10353.9078
    2    0           2.0000       -46.469610     -1264.5024
    3    0           2.0000        -5.436848      -147.9442
    4    0           2.0000        -0.323063        -8.7910
    2    1           6.0000       -40.443035     -1100.5110
    3    1           6.0000        -3.625385       -98.6518
    4    1           1.0000        -0.088117        -2.3978
    3    2          10.0000        -0.696999       -18.9663


  Species: As

  List of occupied orbitals and eigenvalues:
    n    l              occ      energy [Ha]    energy [eV]
    1    0           2.0000      -436.649520    -11881.8380
    2    0           2.0000       -54.755544     -1489.9742
    3    0           2.0000        -6.992637      -190.2793
    4    0           2.0000        -0.530794       -14.4436
    2    1           6.0000       -48.002396     -1306.2117
    3    1           6.0000        -4.910227      -133.6141
    4    1           3.0000        -0.189185        -5.1480
    3    2          10.0000        -1.492027       -40.6001


  Adding cutoff potential to free-atom effective potential.
  Creating fixed part of basis set: Ionic, confined, hydrogenic.
 
  Ga                   ion:

  List of free ionic orbitals and eigenvalues:
    n    l      energy [Ha]    energy [eV]
    1    0      -381.269939    -10374.8829
    2    0       -47.220675     -1284.9399
    3    0        -6.191291      -168.4736
    4    0        -0.957864       -26.0648
    2    1       -41.195167     -1120.9775
    3    1        -4.379935      -119.1841
    3    2        -1.446562       -39.3629


  List of ionic basis orbitals and eigenvalues:
    n    l      energy [Ha]    energy [eV]    outer radius [A]
    4    0        -0.957856       -26.0646       4.760587

 
  Ga                   hydrogenic:
 
  List of hydrogenic basis orbitals: 
    n    l      effective z      eigenvalue [eV]  inner max. [A]     outer max. [A]     outer radius [A]   
    2    1         1.200000        -4.7493           1.725811           1.725811           5.445806
    3    2         3.800000       -21.8280           1.255894           1.255894           5.379637
    4    3         6.800000       -39.3202           1.240634           1.240634           5.185913
 
 
  As                   ion:

  List of free ionic orbitals and eigenvalues:
    n    l      energy [Ha]    energy [eV]
    1    0      -437.521171    -11905.5568
    2    0       -55.607242     -1513.1500
    3    0        -7.840974      -213.3638
    4    0        -1.261898       -34.3380
    2    1       -48.854908     -1329.4097
    3    1        -5.758049      -156.6845
    4    1        -0.860696       -23.4207
    3    2        -2.335871       -63.5623


  List of ionic basis orbitals and eigenvalues:
    n    l      energy [Ha]    energy [eV]    outer radius [A]
    4    0        -1.261891       -34.3378       4.258644

 
  As                   hydrogenic:
 
  List of hydrogenic basis orbitals: 
    n    l      effective z      eigenvalue [eV]  inner max. [A]     outer max. [A]     outer radius [A]   
    3    2         4.000000       -24.1871           1.194291           1.194291           5.372135
    2    1         1.500000        -7.6128           1.400007           1.400007           5.438212
    4    3         6.800000       -39.3202           1.238904           1.238904           5.178681
 
  Creating atomic-like basis functions for current effective potential.

  Species Ga                  :

  List of atomic basis orbitals and eigenvalues:
    n    l      energy [Ha]    energy [eV]    outer radius [A]
    1    0      -380.499117    -10353.9078       0.339519
    2    0       -46.469610     -1264.5024       0.983486
    3    0        -5.436848      -147.9442       2.780058
    4    0        -0.323063        -8.7910       5.379637
    2    1       -40.443035     -1100.5110       1.020225
    3    1        -3.625385       -98.6518       3.258922
    4    1        -0.088117        -2.3978       5.445806
    3    2        -0.696999       -18.9663       5.060655


  Species As                  :

  List of atomic basis orbitals and eigenvalues:
    n    l      energy [Ha]    energy [eV]    outer radius [A]
    1    0      -436.649520    -11881.8380       0.318942
    2    0       -54.755544     -1489.9742       0.912655
    3    0        -6.992637      -190.2793       2.486936
    4    0        -0.530794       -14.4436       5.306860
    2    1       -48.002396     -1306.2117       0.946748
    3    1        -4.910227      -133.6141       2.844895
    4    1        -0.189185        -5.1480       5.438212
    3    2        -1.492027       -40.6001       4.527073

  Assembling full basis from fixed parts.
  | Species Ga :   atomic orbital   1 s accepted.
  | Species Ga :   atomic orbital   2 s accepted.
  | Species Ga :   atomic orbital   3 s accepted.
  | Species Ga :    ionic orbital   4 s accepted.
  | Species Ga :   atomic orbital   4 s accepted.
  | Species Ga :   atomic orbital   2 p accepted.
  | Species Ga :   atomic orbital   3 p accepted.
  | Species Ga :   atomic orbital   4 p accepted.
  | Species Ga :    hydro orbital   2 p accepted.
  | Species Ga :   atomic orbital   3 d accepted.
  | Species Ga :    hydro orbital   3 d accepted.
  | Species Ga :    hydro orbital   4 f accepted.
  | Species As :   atomic orbital   1 s accepted.
  | Species As :   atomic orbital   2 s accepted.
  | Species As :   atomic orbital   3 s accepted.
  | Species As :    ionic orbital   4 s accepted.
  | Species As :   atomic orbital   4 s accepted.
  | Species As :   atomic orbital   2 p accepted.
  | Species As :   atomic orbital   3 p accepted.
  | Species As :   atomic orbital   4 p accepted.
  | Species As :    hydro orbital   2 p accepted.
  | Species As :   atomic orbital   3 d accepted.
  | Species As :    hydro orbital   3 d accepted.
  | Species As :    hydro orbital   4 f accepted.
 
  Basis size parameters after reduction:
  | Total number of radial functions:       24
  | Total number of basis functions :      272
 
  Per-task memory consumption for arrays in subroutine allocate_ext:
  |           8.713696MB.
  Testing on-site integration grid accuracy.
  |  Species  Function  <phi|h_atom|phi> (log., in eV)  <phi|h_atom|phi> (rad., in eV)
           1        1             -10353.9077629892             -10353.9073028320
           1        2              -1264.5024135447              -1264.5024070275
           1        3               -147.9441678780               -147.9441669488
           1        4                 -8.4148692911                 -8.4148689113
           1        5                  4.7381165936                  4.7380408929
           1        6              -1100.5109801210              -1100.5109796516
           1        7                -98.6517545591                -98.6517540185
           1        8                 -2.4084549803                 -2.4084810126
           1        9                  5.1682140600                  5.1680886137
           1       10                -18.9663196997                -18.9663195664
           1       11                  8.8349655596                  8.8349615208
           1       12                 22.8735609727                 22.8735619171
           2       13             -11881.8379867549             -11881.8374048622
           2       14              -1489.9741630771              -1489.9741530529
           2       15               -190.2793234935               -190.2793223341
           2       16                -14.1960327161                -14.1960324769
           2       17                  5.9274629900                  5.9274413386
           2       18              -1306.2116640294              -1306.2116626351
           2       19               -133.6140787212               -133.6140780872
           2       20                 -5.1494783706                 -5.1494878741
           2       21                  4.9946648260                  4.9944740976
           2       22                -40.6001171048                -40.6001169605
           2       23                  7.1867940614                  7.1867909443
           2       24                 21.1344938241                 21.1344949749

  Preparing densities etc. for the partition functions (integrals / Hartree potential).

  Preparations completed.
  max(cpu_time)          :      0.447 s.
  Wall clock time (cpu1) :      0.445 s.
------------------------------------------------------------
  After prepare_scf [GB]:    179.80

  Initializing index lists of integration centers etc. from given atomic structure:
  Mapping all atomic coordinates to central unit cell.

  Initializing the k-points
  Using symmetry for reducing the k-points
  | k-points reduced from:      216 to      112
  | Number of k-points                             :       112
  The eigenvectors in the calculations are COMPLEX.
  | K-points in task   0:         2
  | K-points in task   1:         3
  | K-points in task   2:         3
  | K-points in task   3:         3
  | K-points in task   4:         3
  | K-points in task   5:         3
  | K-points in task   6:         3
  | K-points in task   7:         3
  | K-points in task   8:         3
  | K-points in task   9:         3
  | K-points in task  10:         3
  | K-points in task  11:         3
  | K-points in task  12:         3
  | K-points in task  13:         3
  | K-points in task  14:         3
  | K-points in task  15:         3
  | K-points in task  16:         3
  | K-points in task  17:         3
  | K-points in task  18:         3
  | K-points in task  19:         3
  | K-points in task  20:         3
  | K-points in task  21:         3
  | K-points in task  22:         3
  | K-points in task  23:         3
  | K-points in task  24:         3
  | K-points in task  25:         3
  | K-points in task  26:         3
  | K-points in task  27:         3
  | K-points in task  28:         3
  | K-points in task  29:         3
  | K-points in task  30:         3
  | K-points in task  31:         3
  | K-points in task  32:         3
  | K-points in task  33:         2
  | K-points in task  34:         2
  | K-points in task  35:         2
  | K-points in task  36:         2
  | K-points in task  37:         2
  | K-points in task  38:         2
  | K-points in task  39:         2
  | Number of basis functions in the Hamiltonian integrals :      4236
  | Number of basis functions in a single unit cell        :       272
  | Number of centers in hartree potential         :      1128
  | Number of centers in hartree multipole         :       654
  | Number of centers in electron density summation:       492
  | Number of centers in basis integrals           :       516
  | Number of centers in integrals                 :       191
  | Number of centers in hamiltonian               :       498
  | Consuming        164 KiB for k_phase.
  | Number of super-cells (origin) [n_cells]                     :         729
  | Number of super-cells (after PM_index) [n_cells]             :          94
  | Number of super-cells in hamiltonian [n_cells_in_hamiltonian]:          94
  | Size of matrix packed + index [n_hamiltonian_matrix_size] :      769297
  After initialize_bc_dependent_lists [GB]:    179.49

------------------------------------------------------------
          Begin self-consistency loop: Initialization.

          Date     :  20240229, Time     :  171434.932
------------------------------------------------------------
  Available memory per node after initialize_hartree_non_periodic_ewald [GB]:    179.49
  | Estimated reciprocal-space cutoff momentum G_max:         2.38923391 bohr^-1 .
  | Reciprocal lattice points for long-range Hartree potential:     256
  Available memory per node after initialize_recip_hartree_potential [GB]:    179.49
  Available memory per node after initialize_scalapack [GB]:    179.49
  Available memory per node after aims_elsi_init_scf [GB]:    179.49
  Available memory per node after initialize_fixed_grids [GB]:    179.49
  Partitioning the integration grid into batches with parallel hashing+maxmin method.
  | Number of batches:     2538
  | Maximal batch size:     109
  | Minimal batch size:      49
  | Average batch size:      73.601
  | Standard deviation of batch sizes:      14.389

  Integration load balanced across    40 MPI tasks.
  Work distribution over tasks is as follows:
  Task     0 has       4631 integration points.
  Task     1 has       4701 integration points.
  Task     2 has       4638 integration points.
  Task     3 has       4650 integration points.
  Task     4 has       4633 integration points.
  Task     5 has       4671 integration points.
  Task     6 has       4677 integration points.
  Task     7 has       4630 integration points.
  Task     8 has       4627 integration points.
  Task     9 has       4644 integration points.
  Task    10 has       4702 integration points.
  Task    11 has       4696 integration points.
  Task    12 has       4660 integration points.
  Task    13 has       4691 integration points.
  Task    14 has       4626 integration points.
  Task    15 has       4628 integration points.
  Task    16 has       4696 integration points.
  Task    17 has       4701 integration points.
  Task    18 has       4700 integration points.
  Task    19 has       4693 integration points.
  Task    20 has       4683 integration points.
  Task    21 has       4700 integration points.
  Task    22 has       4650 integration points.
  Task    23 has       4698 integration points.
  Task    24 has       4660 integration points.
  Task    25 has       4671 integration points.
  Task    26 has       4694 integration points.
  Task    27 has       4697 integration points.
  Task    28 has       4679 integration points.
  Task    29 has       4697 integration points.
  Task    30 has       4697 integration points.
  Task    31 has       4647 integration points.
  Task    32 has       4646 integration points.
  Task    33 has       4626 integration points.
  Task    34 has       4626 integration points.
  Task    35 has       4703 integration points.
  Task    36 has       4682 integration points.
  Task    37 has       4705 integration points.
  Task    38 has       4702 integration points.
  Task    39 has       4642 integration points.
  Available memory per node after partition_grid [GB]:    179.49
  Initializing partition tables, free-atom densities, potentials, etc. across the integration grid (initialize_grid_storage).
  | initialize_grid_storage: Actual outermost partition radius vs. multipole_radius_free
  | (-- VB: in principle, multipole_radius_free should be larger, hence this output)
  | Species        1: Confinement radius =              6.000000000000000 AA, multipole_radius_free =              6.005319660126857 AA.
  | Species        1: outer_partition_radius set to              6.005319660126857 AA .
  | Species        2: Confinement radius =              6.000000000000000 AA, multipole_radius_free =              6.070707973509038 AA.
  | Species        2: outer_partition_radius set to              6.070707973509038 AA .
  | The sparse table of interatomic distances needs       2073.27 kbyte instead of      2130.05 kbyte of memory.
  | Net number of integration points:   186800
  | of which are non-zero points    :   150048
  | Numerical average free-atom electrostatic potential    :    -14.96451468 eV
  Available memory per node after initialize_grid_storage_p1 [GB]:    179.41
  Renormalizing the initial density to the exact electron count on the 3D integration grid.
  | Initial density: Formal number of electrons (from input files) :     256.0000000000
  | Integrated number of electrons on 3D grid     :     256.0079216399
  | Charge integration error                      :       0.0079216399
  | Normalization factor for density and gradient :       0.9999690571
  Renormalizing the free-atom superposition density to the exact electron count on the 3D integration grid.
  | Formal number of electrons (from input files) :     256.0000000000
  | Integrated number of electrons on 3D grid     :     256.0079216399
  | Charge integration error                      :       0.0079216399
  | Normalization factor for density and gradient :       0.9999690571
  Obtaining max. number of non-zero basis functions in each batch (get_n_compute_maxes).
  | Maximal number of non-zero basis functions:      943 in task     0
  | Maximal number of non-zero basis functions:      955 in task     1
  | Maximal number of non-zero basis functions:      978 in task     2
  | Maximal number of non-zero basis functions:      969 in task     3
  | Maximal number of non-zero basis functions:      932 in task     4
  | Maximal number of non-zero basis functions:      936 in task     5
  | Maximal number of non-zero basis functions:      947 in task     6
  | Maximal number of non-zero basis functions:      951 in task     7
  | Maximal number of non-zero basis functions:      959 in task     8
  | Maximal number of non-zero basis functions:      938 in task     9
  | Maximal number of non-zero basis functions:      937 in task    10
  | Maximal number of non-zero basis functions:      950 in task    11
  | Maximal number of non-zero basis functions:      948 in task    12
  | Maximal number of non-zero basis functions:      972 in task    13
  | Maximal number of non-zero basis functions:      928 in task    14
  | Maximal number of non-zero basis functions:      959 in task    15
  | Maximal number of non-zero basis functions:      947 in task    16
  | Maximal number of non-zero basis functions:      958 in task    17
  | Maximal number of non-zero basis functions:      952 in task    18
  | Maximal number of non-zero basis functions:      931 in task    19
  | Maximal number of non-zero basis functions:      952 in task    20
  | Maximal number of non-zero basis functions:      948 in task    21
  | Maximal number of non-zero basis functions:      941 in task    22
  | Maximal number of non-zero basis functions:      951 in task    23
  | Maximal number of non-zero basis functions:      933 in task    24
  | Maximal number of non-zero basis functions:      936 in task    25
  | Maximal number of non-zero basis functions:      928 in task    26
  | Maximal number of non-zero basis functions:      940 in task    27
  | Maximal number of non-zero basis functions:      982 in task    28
  | Maximal number of non-zero basis functions:      922 in task    29
  | Maximal number of non-zero basis functions:      978 in task    30
  | Maximal number of non-zero basis functions:      950 in task    31
  | Maximal number of non-zero basis functions:      919 in task    32
  | Maximal number of non-zero basis functions:      937 in task    33
  | Maximal number of non-zero basis functions:      969 in task    34
  | Maximal number of non-zero basis functions:      954 in task    35
  | Maximal number of non-zero basis functions:      952 in task    36
  | Maximal number of non-zero basis functions:      951 in task    37
  | Maximal number of non-zero basis functions:      952 in task    38
  | Maximal number of non-zero basis functions:      972 in task    39
  Available memory per node after get_n_compute_maxes_p1 [GB]:    179.39
  Allocating        1.469 MB for KS_eigenvector_complex
  Available memory per node after allocate_matrices [GB]:    179.32
  Available memory per node after init_comm_sparse_local_matrix_scalapack [GB]:    179.31
  Integrating Hamiltonian matrix: batch-based integration.
  Time summed over all CPUs for integration: real work       30.443 s, elapsed       31.575 s
  Available memory per node after integrate hamiltonian matrix [GB]:    178.55
  Integrating overlap matrix.
  Time summed over all CPUs for integration: real work       23.435 s, elapsed       24.265 s
  Available memory per node after integrate ovlp matrix [GB]:    178.31
  Available memory per node after ASI_callbacks invoke [GB]:    178.31
  Decreasing sparse matrix size:
  | Tolerance:  0.1000E-12
  Hamiltonian matrix
  | Array has   621886 nonzero elements out of   769297 elements
  | Sparsity factor is 0.192
  Overlap matrix
  | Array has   551312 nonzero elements out of   769297 elements
  | Sparsity factor is 0.283
  New size of hamiltonian matrix:      625569
  Available memory per node after save_overlap_scalapack [GB]:    178.30

  Updating Kohn-Sham eigenvalues and eigenvectors using ELSI and the (modified) LAPACK eigensolver.
  Singularity check in k-point 40, task 0 (analysis for other k-points/tasks may follow below):
  Overlap matrix is not singular
  | Lowest and highest eigenvalues :  0.6689E-03,  0.8479E+01
  Finished singularity check of overlap matrix
  | Time :     0.017 s
  Starting LAPACK eigensolver
  Finished Cholesky decomposition
  | Time :     0.002 s
  Finished transformation to standard eigenproblem
  | Time :     0.005 s
  Finished solving standard eigenproblem
  | Time :     0.015 s
  Finished back-transformation of eigenvectors
  | Time :     0.002 s

  Obtaining occupation numbers and electronic chemical potential using ELSI.
  | Note that, for insulating systems, the printed 'chemical potential' value is not uniquely defined.
  | It can be anywhere in the energy gap, as long as it correctly separates occupied and unoccupied states.
  | In systems with a gap, the physically relevant chemical potential is the VBM or HOMO.

  | Chemical potential (Fermi level):    -5.45979392 eV
  Available memory per node after advance_KS_solution [GB]:    178.20
  Writing Kohn-Sham eigenvalues.
  K-point:       1 at    0.000000    0.000000    0.000000 (in units of recip. lattice)

  State    Occupation    Eigenvalue [Ha]    Eigenvalue [eV]
      1       2.00000        -436.292434       -11872.12116
      2       2.00000        -436.292433       -11872.12116
      3       2.00000        -436.292433       -11872.12116
      4       2.00000        -436.292433       -11872.12116
      5       2.00000        -380.158383       -10344.63592
      6       2.00000        -380.158383       -10344.63592
      7       2.00000        -380.158383       -10344.63592
      8       2.00000        -380.158382       -10344.63591
      9       2.00000         -54.728879        -1489.24856
     10       2.00000         -54.728878        -1489.24855
     11       2.00000         -54.728878        -1489.24855
     12       2.00000         -54.728878        -1489.24855
     13       2.00000         -47.994004        -1305.98330
     14       2.00000         -47.994004        -1305.98330
     15       2.00000         -47.994004        -1305.98330
     16       2.00000         -47.994004        -1305.98330
     17       2.00000         -47.994004        -1305.98330
     18       2.00000         -47.994004        -1305.98330
     19       2.00000         -47.994004        -1305.98330
     20       2.00000         -47.994004        -1305.98330
     21       2.00000         -47.994004        -1305.98330
     22       2.00000         -47.994004        -1305.98330
     23       2.00000         -47.994004        -1305.98330
     24       2.00000         -47.994004        -1305.98330
     25       2.00000         -46.437509        -1263.62890
     26       2.00000         -46.437509        -1263.62890
     27       2.00000         -46.437509        -1263.62890
     28       2.00000         -46.437508        -1263.62888
     29       2.00000         -40.428007        -1100.10203
     30       2.00000         -40.428007        -1100.10203
     31       2.00000         -40.428007        -1100.10203
     32       2.00000         -40.428007        -1100.10203
     33       2.00000         -40.428007        -1100.10203
     34       2.00000         -40.428007        -1100.10203
     35       2.00000         -40.428007        -1100.10203
     36       2.00000         -40.428007        -1100.10203
     37       2.00000         -40.428007        -1100.10203
     38       2.00000         -40.428007        -1100.10203
     39       2.00000         -40.428007        -1100.10203
     40       2.00000         -40.428007        -1100.10203
     41       2.00000          -7.005028         -190.61652
     42       2.00000          -7.005028         -190.61650
     43       2.00000          -7.005028         -190.61650
     44       2.00000          -7.005028         -190.61650
     45       2.00000          -5.442669         -148.10256
     46       2.00000          -5.442669         -148.10256
     47       2.00000          -5.442669         -148.10256
     48       2.00000          -5.442666         -148.10247
     49       2.00000          -4.929968         -134.15126
     50       2.00000          -4.929968         -134.15126
     51       2.00000          -4.929968         -134.15126
     52       2.00000          -4.929967         -134.15124
     53       2.00000          -4.929967         -134.15124
     54       2.00000          -4.929967         -134.15124
     55       2.00000          -4.929967         -134.15124
     56       2.00000          -4.929967         -134.15124
     57       2.00000          -4.929967         -134.15124
     58       2.00000          -4.929966         -134.15121
     59       2.00000          -4.929966         -134.15121
     60       2.00000          -4.929966         -134.15121
     61       2.00000          -3.638181          -98.99994
     62       2.00000          -3.638181          -98.99994
     63       2.00000          -3.638181          -98.99994
     64       2.00000          -3.638180          -98.99992
     65       2.00000          -3.638180          -98.99992
     66       2.00000          -3.638180          -98.99992
     67       2.00000          -3.638180          -98.99992
     68       2.00000          -3.638180          -98.99992
     69       2.00000          -3.638180          -98.99992
     70       2.00000          -3.638179          -98.99990
     71       2.00000          -3.638179          -98.99990
     72       2.00000          -3.638179          -98.99990
     73       2.00000          -1.521993          -41.41553
     74       2.00000          -1.521993          -41.41553
     75       2.00000          -1.521993          -41.41553
     76       2.00000          -1.521959          -41.41460
     77       2.00000          -1.521959          -41.41460
     78       2.00000          -1.521959          -41.41460
     79       2.00000          -1.521892          -41.41279
     80       2.00000          -1.521892          -41.41279
     81       2.00000          -1.521892          -41.41279
     82       2.00000          -1.521892          -41.41279
     83       2.00000          -1.521892          -41.41279
     84       2.00000          -1.521892          -41.41279
     85       2.00000          -1.521402          -41.39947
     86       2.00000          -1.521402          -41.39947
     87       2.00000          -1.521402          -41.39947
     88       2.00000          -1.521381          -41.39889
     89       2.00000          -1.521381          -41.39889
     90       2.00000          -1.521347          -41.39795
     91       2.00000          -1.521347          -41.39795
     92       2.00000          -1.521347          -41.39795
     93       2.00000          -0.732544          -19.93353
     94       2.00000          -0.732544          -19.93353
     95       2.00000          -0.732544          -19.93353
     96       2.00000          -0.725446          -19.74040
     97       2.00000          -0.725446          -19.74040
     98       2.00000          -0.725446          -19.74040
     99       2.00000          -0.723234          -19.68019
    100       2.00000          -0.723234          -19.68019
    101       2.00000          -0.723234          -19.68019
    102       2.00000          -0.723234          -19.68019
    103       2.00000          -0.723234          -19.68019
    104       2.00000          -0.723234          -19.68019
    105       2.00000          -0.722762          -19.66735
    106       2.00000          -0.722762          -19.66735
    107       2.00000          -0.722762          -19.66735
    108       2.00000          -0.721527          -19.63375
    109       2.00000          -0.721527          -19.63375
    110       2.00000          -0.721004          -19.61950
    111       2.00000          -0.721004          -19.61950
    112       2.00000          -0.721004          -19.61950
    113       2.00000          -0.693261          -18.86460
    114       2.00000          -0.602730          -16.40112
    115       2.00000          -0.602730          -16.40112
    116       2.00000          -0.602730          -16.40112
    117       2.00000          -0.466212          -12.68627
    118       2.00000          -0.466212          -12.68627
    119       2.00000          -0.466212          -12.68627
    120       2.00000          -0.319966           -8.70672
    121       2.00000          -0.319966           -8.70672
    122       2.00000          -0.319966           -8.70672
    123       2.00000          -0.319966           -8.70672
    124       2.00000          -0.319966           -8.70672
    125       2.00000          -0.319966           -8.70672
    126       2.00000          -0.225126           -6.12599
    127       2.00000          -0.225126           -6.12599
    128       2.00000          -0.225126           -6.12599
    129       0.00000          -0.199181           -5.41999
    130       0.00000          -0.161308           -4.38941
    131       0.00000          -0.161308           -4.38941
    132       0.00000          -0.161308           -4.38941
    133       0.00000          -0.154996           -4.21767
    134       0.00000          -0.154996           -4.21767
    135       0.00000          -0.154996           -4.21767
    136       0.00000          -0.075278           -2.04842
    137       0.00000          -0.075278           -2.04842
    138       0.00000          -0.075278           -2.04842
    139       0.00000           0.083734            2.27852
    140       0.00000           0.159053            4.32805
    141       0.00000           0.159053            4.32805
    142       0.00000           0.159053            4.32805
    143       0.00000           0.159053            4.32805
    144       0.00000           0.159053            4.32805
    145       0.00000           0.159053            4.32805
    146       0.00000           0.173219            4.71354
    147       0.00000           0.173219            4.71354
    148       0.00000           0.188190            5.12092
    149       0.00000           0.188190            5.12092
    150       0.00000           0.188190            5.12092
    151       0.00000           0.280717            7.63869
    152       0.00000           0.280717            7.63869
    153       0.00000           0.280717            7.63869
    154       0.00000           0.287865            7.83322
    155       0.00000           0.287865            7.83322
    156       0.00000           0.287865            7.83322
    157       0.00000           0.287865            7.83322
    158       0.00000           0.287865            7.83322
    159       0.00000           0.287865            7.83322
    160       0.00000           0.292276            7.95323
    161       0.00000           0.292276            7.95323
    162       0.00000           0.292276            7.95323
    163       0.00000           0.298760            8.12967
    164       0.00000           0.298760            8.12967
    165       0.00000           0.298760            8.12967
    166       0.00000           0.385506           10.49015
    167       0.00000           0.385506           10.49015
    168       0.00000           0.385506           10.49015
    169       0.00000           0.535703           14.57721
    170       0.00000           0.535703           14.57721
    171       0.00000           0.535703           14.57721
    172       0.00000           0.602258           16.38828
    173       0.00000           0.602258           16.38828
    174       0.00000           0.602258           16.38828
    175       0.00000           0.602258           16.38828
    176       0.00000           0.602258           16.38828
    177       0.00000           0.602258           16.38828

  What follows are estimated values for band gap, HOMO, LUMO, etc.
  | They are estimated on a discrete k-point grid and not necessarily exact.
  | For converged numbers, create a DOS and/or band structure plot on a denser k-grid.

  Highest occupied state (VBM) at     -6.12599018 eV (relative to internal zero)
  | Occupation number:      2.00000000
  | K-point:       1 at    0.000000    0.000000    0.000000 (in units of recip. lattice)

  Lowest unoccupied state (CBM) at    -5.41999006 eV (relative to internal zero)
  | Occupation number:      0.00000002
  | K-point:       1 at    0.000000    0.000000    0.000000 (in units of recip. lattice)

  ESTIMATED overall HOMO-LUMO gap:      0.70600013 eV between HOMO at k-point 1 and LUMO at k-point 1
  | This appears to be a direct band gap.
  The gap value is above 0.2 eV. Unless you are using a very sparse k-point grid,
  this system is most likely an insulator or a semiconductor.
  Calculating total energy contributions from superposition of free atom densities.

  Total energy components:
  | Sum of eigenvalues            :       -9871.43644697 Ha     -268615.45272586 eV
  | XC energy correction          :        -627.25467123 Ha      -17068.46803827 eV
  | XC potential correction       :         822.72767141 Ha       22387.55900560 eV
  | Free-atom electrostatic energy:       -7227.80095113 Ha     -196678.47077062 eV
  | Hartree energy correction     :           0.00000000 Ha           0.00000000 eV
  | Entropy correction            :          -0.00000000 Ha          -0.00000000 eV
  | ---------------------------
  | Total energy                  :      -16903.76439792 Ha     -459974.83252915 eV
  | Total energy, T -> 0          :      -16903.76439792 Ha     -459974.83252915 eV  <-- do not rely on this value for anything but (periodic) metals
  | Electronic free energy        :      -16903.76439792 Ha     -459974.83252915 eV

  Derived energy quantities:
  | Kinetic energy                :       17226.10735997 Ha      468746.23081037 eV
  | Electrostatic energy          :      -33502.61708666 Ha     -911652.59530125 eV
  | Energy correction for multipole
  | error in Hartree potential    :           0.00000000 Ha           0.00000000 eV
  | Sum of eigenvalues per atom                           :      -33576.93159073 eV
  | Total energy (T->0) per atom                          :      -57496.85406614 eV  <-- do not rely on this value for anything but (periodic) metals
  | Electronic free energy per atom                       :      -57496.85406614 eV
  Initialize hartree_potential_storage
  Max. number of atoms included in rho_multipole:            8

  End scf initialization - timings             :  max(cpu_time)    wall_clock(cpu1)
  | Time for scf. initialization                :        2.010 s           2.010 s
  | Boundary condition initialization           :        0.038 s           0.038 s
  | Integration                                 :        1.420 s           1.420 s
  | Solution of K.-S. eqns.                     :        0.146 s           0.145 s
  | Grid partitioning                           :        0.099 s           0.098 s
  | Preloading free-atom quantities on grid     :        0.286 s           0.286 s
  | Free-atom superposition energy              :        0.034 s           0.035 s
  | Total energy evaluation                     :        0.001 s           0.000 s

  Partial memory accounting:
  | Current value for overall tracked memory usage:
  |   Minimum:       13.446 MB (on task  0)
  |   Maximum:       14.181 MB (on task  1)
  |   Average:       14.034 MB
  | Peak value for overall tracked memory usage:
  |   Minimum:       25.245 MB (on task 33 after allocating wave)
  |   Maximum:       26.752 MB (on task 28 after allocating wave)
  |   Average:       26.036 MB
  | Largest tracked array allocation so far:
  |   Minimum:        6.443 MB (hamiltonian_shell on task 32)
  |   Maximum:        7.357 MB (hamiltonian_shell on task 28)
  |   Average:        6.872 MB
  Note:  These values currently only include a subset of arrays which are explicitly tracked.
  The "true" memory usage will be greater.
------------------------------------------------------------
  Available memory after initialize_scf [GB]:    178.20
  Available memory after allocating mixing [GB]:    178.20
  Evaluating new KS density using the density matrix
  Evaluating density matrix
  Time summed over all CPUs for getting density from density matrix: real work       48.186 s, elapsed       49.730 s
  Integration grid: deviation in total charge (<rho> - N_e) =   8.390089E-11

  Time for density update prior                :  max(cpu_time)    wall_clock(cpu1)
  | self-consistency iterative process          :        1.273 s           1.274 s
  Available memory before start of SCF loop [GB]:    177.63

------------------------------------------------------------
          Begin self-consistency iteration #    1

  Date     :  20240229, Time     :  171438.216
------------------------------------------------------------
  Pulay mixing of updated and previous charge densities.
  Available memory per node after mixing [GB]:    177.63
  Renormalizing the density to the exact electron count on the 3D integration grid.
  | Formal number of electrons (from input files) :     256.0000000000
  | Integrated number of electrons on 3D grid     :     255.9991292957
  | Charge integration error                      :      -0.0008707043
  | Normalization factor for density and gradient :       1.0000034012

  Evaluating partitioned Hartree potential by multipole expansion.
  | Original multipole sum: apparent total charge =  -0.436608E-12
  | Sum of charges compensated after spline to logarithmic grids =   0.282292E-07
  | Analytical far-field extrapolation by fixed multipoles:
  | Hartree multipole sum: apparent total charge =  -0.436545E-12
  Summing up the Hartree potential.
  Time summed over all CPUs for potential: real work        0.167 s, elapsed        0.178 s
  | RMS charge density error from multipole expansion :   0.397588E-03
  | Average real-space part of the electrostatic potential :      0.01061226 eV

  Integrating Hamiltonian matrix: batch-based integration.
  Time summed over all CPUs for integration: real work       30.090 s, elapsed       31.074 s

  Updating Kohn-Sham eigenvalues and eigenvectors using ELSI and the (modified) LAPACK eigensolver.
  Starting LAPACK eigensolver
  Finished Cholesky decomposition
  | Time :     0.003 s
  Finished transformation to standard eigenproblem
  | Time :     0.006 s
  Finished solving standard eigenproblem
  | Time :     0.017 s
  Finished back-transformation of eigenvectors
  | Time :     0.001 s

  Obtaining occupation numbers and electronic chemical potential using ELSI.
  | Note that, for insulating systems, the printed 'chemical potential' value is not uniquely defined.
  | It can be anywhere in the energy gap, as long as it correctly separates occupied and unoccupied states.
  | In systems with a gap, the physically relevant chemical potential is the VBM or HOMO.

  | Chemical potential (Fermi level):    -5.44821133 eV
  Writing Kohn-Sham eigenvalues.
  K-point:       1 at    0.000000    0.000000    0.000000 (in units of recip. lattice)

  State    Occupation    Eigenvalue [Ha]    Eigenvalue [eV]
      1       2.00000        -436.289970       -11872.05412
      2       2.00000        -436.289970       -11872.05412
      3       2.00000        -436.289970       -11872.05412
      4       2.00000        -436.289970       -11872.05412
      5       2.00000        -380.163059       -10344.76317
      6       2.00000        -380.163059       -10344.76317
      7       2.00000        -380.163059       -10344.76317
      8       2.00000        -380.163059       -10344.76316
      9       2.00000         -54.726845        -1489.19322
     10       2.00000         -54.726845        -1489.19321
     11       2.00000         -54.726845        -1489.19321
     12       2.00000         -54.726845        -1489.19321
     13       2.00000         -47.991925        -1305.92673
     14       2.00000         -47.991925        -1305.92673
     15       2.00000         -47.991925        -1305.92673
     16       2.00000         -47.991925        -1305.92673
     17       2.00000         -47.991925        -1305.92673
     18       2.00000         -47.991925        -1305.92673
     19       2.00000         -47.991925        -1305.92673
     20       2.00000         -47.991925        -1305.92673
     21       2.00000         -47.991925        -1305.92673
     22       2.00000         -47.991925        -1305.92673
     23       2.00000         -47.991925        -1305.92673
     24       2.00000         -47.991925        -1305.92673
     25       2.00000         -46.442039        -1263.75219
     26       2.00000         -46.442039        -1263.75219
     27       2.00000         -46.442039        -1263.75219
     28       2.00000         -46.442038        -1263.75216
     29       2.00000         -40.432582        -1100.22652
     30       2.00000         -40.432582        -1100.22652
     31       2.00000         -40.432582        -1100.22652
     32       2.00000         -40.432582        -1100.22652
     33       2.00000         -40.432582        -1100.22652
     34       2.00000         -40.432582        -1100.22652
     35       2.00000         -40.432582        -1100.22652
     36       2.00000         -40.432582        -1100.22652
     37       2.00000         -40.432582        -1100.22652
     38       2.00000         -40.432581        -1100.22652
     39       2.00000         -40.432581        -1100.22652
     40       2.00000         -40.432581        -1100.22652
     41       2.00000          -7.002987         -190.56099
     42       2.00000          -7.002987         -190.56096
     43       2.00000          -7.002987         -190.56096
     44       2.00000          -7.002987         -190.56096
     45       2.00000          -5.445683         -148.18457
     46       2.00000          -5.445683         -148.18457
     47       2.00000          -5.445683         -148.18457
     48       2.00000          -5.445680         -148.18449
     49       2.00000          -4.927915         -134.09539
     50       2.00000          -4.927915         -134.09539
     51       2.00000          -4.927915         -134.09539
     52       2.00000          -4.927914         -134.09537
     53       2.00000          -4.927914         -134.09537
     54       2.00000          -4.927914         -134.09537
     55       2.00000          -4.927914         -134.09537
[...]
  | Computing matrix elements for SOC operator            :          5.790               5.791
  | Constructing second-variational Hamiltonian           :          0.048               0.049
  | Diagonalizing second-variational Hamiltonian          :          0.251               0.250
  | Syncing data and calculating occupations              :          0.181               0.157
  | Writing out data, calculating band gaps, etc.         :          0.002               0.001
  | Total SOC time                                        :          6.249               6.249

  Partial memory accounting:
  | Current value for overall tracked memory usage:
  |   Minimum:       16.630 MB (on task 33)
  |   Maximum:       17.407 MB (on task 10)
  |   Average:       17.242 MB
  | Peak value for overall tracked memory usage:
  |   Minimum:       46.782 MB (on task 33 after allocating potential_shell)
  |   Maximum:       48.317 MB (on task 28 after allocating potential_shell)
  |   Average:       47.597 MB
  | Largest tracked array allocation so far:
  |   Minimum:       14.318 MB (soc_matrix on task  0)
  |   Maximum:       14.318 MB (soc_matrix on task  0)
  |   Average:       14.318 MB
  Note:  These values currently only include a subset of arrays which are explicitly tracked.
  The "true" memory usage will be greater.
 ------------------------------------------------------------

  -------------------------------------------------------------------
  Writing the requested band structure output (LAPACK version):
  -------------------------------------------------------------------


  Integrating Hamiltonian matrix: batch-based integration.
  Time summed over all CPUs for integration: real work       30.818 s, elapsed       31.919 s
  Integrating SOC matrix: batch-based integration p2 version.
  Allocating        0.159 MB for dist_tab
  Allocating        0.159 MB for dist_tab_sq
  Allocating        0.477 MB for dir_tab
  Allocating        0.017 MB for i_basis_fns
  Allocating        0.534 MB for i_basis_fns_inv
  Allocating        0.017 MB for i_atom_fns
  Allocating        2.353 MB for gradient_basis_wave
  Allocating        0.005 MB for ylm_tab
  Allocating        0.002 MB for radial_wave
  Allocating        0.002 MB for radial_wave_deriv
  Allocating        0.016 MB for i_basis
  Allocating        6.784 MB for soc_shell
  Allocating        0.012 MB for cartesians
  Allocating        0.014 MB for sum_gradient
  Allocating        0.028 MB for sum_hessian
  Allocating        0.001 MB for potential_shell

  Treating all    2 k-points in band plot segment #   1:

  Scalar-relativistic "band gap" along reciprocal space direction number:    1
  | Lowest unoccupied state:      -5.21155231 eV
  | Highest occupied state :      -5.69446754 eV
  | Energy difference      :       0.48291523 eV

  Spin-orbit-coupled "band gap" along reciprocal space direction number:    1
  | Lowest unoccupied state:      -5.21155230 eV
  | Highest occupied state :      -5.57858672 eV
  | Energy difference      :       0.36703442 eV


  Treating all    2 k-points in band plot segment #   2:

  Scalar-relativistic "band gap" along reciprocal space direction number:    2
  | Lowest unoccupied state:      -5.21155231 eV
  | Highest occupied state :      -5.69446754 eV
  | Energy difference      :       0.48291523 eV

  Spin-orbit-coupled "band gap" along reciprocal space direction number:    2
  | Lowest unoccupied state:      -5.21155230 eV
  | Highest occupied state :      -5.57858672 eV
  | Energy difference      :       0.36703442 eV


  Treating all    2 k-points in band plot segment #   3:

  Scalar-relativistic "band gap" along reciprocal space direction number:    3
  | Lowest unoccupied state:      -5.21155231 eV
  | Highest occupied state :      -5.69446754 eV
  | Energy difference      :       0.48291523 eV

  Spin-orbit-coupled "band gap" along reciprocal space direction number:    3
  | Lowest unoccupied state:      -5.21155230 eV
  | Highest occupied state :      -5.57858672 eV
  | Energy difference      :       0.36703442 eV


  Treating all    2 k-points in band plot segment #   4:

  Scalar-relativistic "band gap" along reciprocal space direction number:    4
  | Lowest unoccupied state:      -5.21155231 eV
  | Highest occupied state :      -5.69446754 eV
  | Energy difference      :       0.48291523 eV

  Spin-orbit-coupled "band gap" along reciprocal space direction number:    4
  | Lowest unoccupied state:      -5.21155230 eV
  | Highest occupied state :      -5.57858672 eV
  | Energy difference      :       0.36703442 eV


  Treating all    2 k-points in band plot segment #   5:

  Scalar-relativistic "band gap" along reciprocal space direction number:    5
  | Lowest unoccupied state:      -5.21155231 eV
  | Highest occupied state :      -5.69446754 eV
  | Energy difference      :       0.48291523 eV

  Spin-orbit-coupled "band gap" along reciprocal space direction number:    5
  | Lowest unoccupied state:      -5.21155230 eV
  | Highest occupied state :      -5.57858672 eV
  | Energy difference      :       0.36703442 eV


  Treating all    2 k-points in band plot segment #   6:

  Scalar-relativistic "band gap" along reciprocal space direction number:    6
  | Lowest unoccupied state:      -5.21155231 eV
  | Highest occupied state :      -5.69446754 eV
  | Energy difference      :       0.48291523 eV

  Spin-orbit-coupled "band gap" along reciprocal space direction number:    6
  | Lowest unoccupied state:      -5.21155230 eV
  | Highest occupied state :      -5.57858672 eV
  | Energy difference      :       0.36703442 eV


  Treating all    2 k-points in band plot segment #   7:

  Scalar-relativistic "band gap" along reciprocal space direction number:    7
  | Lowest unoccupied state:      -5.21155231 eV
  | Highest occupied state :      -5.69446754 eV
  | Energy difference      :       0.48291523 eV

  Spin-orbit-coupled "band gap" along reciprocal space direction number:    7
  | Lowest unoccupied state:      -5.21155230 eV
  | Highest occupied state :      -5.57858672 eV
  | Energy difference      :       0.36703442 eV


  Treating all    2 k-points in band plot segment #   8:

  Scalar-relativistic "band gap" along reciprocal space direction number:    8
  | Lowest unoccupied state:      -5.21155231 eV
  | Highest occupied state :      -5.69446754 eV
  | Energy difference      :       0.48291523 eV

  Spin-orbit-coupled "band gap" along reciprocal space direction number:    8
  | Lowest unoccupied state:      -5.21155230 eV
  | Highest occupied state :      -5.57858672 eV
  | Energy difference      :       0.36703442 eV


  Treating all    2 k-points in band plot segment #   9:

  Scalar-relativistic "band gap" along reciprocal space direction number:    9
  | Lowest unoccupied state:      -5.21155231 eV
  | Highest occupied state :      -5.69446754 eV
  | Energy difference      :       0.48291523 eV

  Spin-orbit-coupled "band gap" along reciprocal space direction number:    9
  | Lowest unoccupied state:      -5.21155230 eV
  | Highest occupied state :      -5.57858672 eV
  | Energy difference      :       0.36703442 eV


  Treating all    2 k-points in band plot segment #  10:

  Scalar-relativistic "band gap" along reciprocal space direction number:   10
  | Lowest unoccupied state:      -5.21155231 eV
  | Highest occupied state :      -5.69446754 eV
  | Energy difference      :       0.48291523 eV

  Spin-orbit-coupled "band gap" along reciprocal space direction number:   10
  | Lowest unoccupied state:      -5.21155230 eV
  | Highest occupied state :      -5.57858672 eV
  | Energy difference      :       0.36703442 eV


  Treating all    2 k-points in band plot segment #  11:

  Scalar-relativistic "band gap" along reciprocal space direction number:   11
  | Lowest unoccupied state:      -5.21155231 eV
  | Highest occupied state :      -5.69446754 eV
  | Energy difference      :       0.48291523 eV

  Spin-orbit-coupled "band gap" along reciprocal space direction number:   11
  | Lowest unoccupied state:      -5.21155230 eV
  | Highest occupied state :      -5.57858672 eV
  | Energy difference      :       0.36703442 eV


  Treating all    2 k-points in band plot segment #  12:

  Scalar-relativistic "band gap" along reciprocal space direction number:   12
  | Lowest unoccupied state:      -5.21155231 eV
  | Highest occupied state :      -5.69446754 eV
  | Energy difference      :       0.48291523 eV

  Spin-orbit-coupled "band gap" along reciprocal space direction number:   12
  | Lowest unoccupied state:      -5.21155230 eV
  | Highest occupied state :      -5.57858672 eV
  | Energy difference      :       0.36703442 eV


  Treating all    2 k-points in band plot segment #  13:

  Scalar-relativistic "band gap" along reciprocal space direction number:   13
  | Lowest unoccupied state:      -5.21155231 eV
  | Highest occupied state :      -5.69446754 eV
  | Energy difference      :       0.48291523 eV

  Spin-orbit-coupled "band gap" along reciprocal space direction number:   13
  | Lowest unoccupied state:      -5.21155230 eV
  | Highest occupied state :      -5.57858672 eV
  | Energy difference      :       0.36703442 eV


  Treating all    2 k-points in band plot segment #  14:

  Scalar-relativistic "band gap" along reciprocal space direction number:   14
  | Lowest unoccupied state:      -5.21155231 eV
  | Highest occupied state :      -5.69446754 eV
  | Energy difference      :       0.48291523 eV

  Spin-orbit-coupled "band gap" along reciprocal space direction number:   14
  | Lowest unoccupied state:      -5.21155230 eV
  | Highest occupied state :      -5.57858672 eV
  | Energy difference      :       0.36703442 eV


  Treating all    2 k-points in band plot segment #  15:

  Scalar-relativistic "band gap" along reciprocal space direction number:   15
  | Lowest unoccupied state:      -5.21155231 eV
  | Highest occupied state :      -5.69446754 eV
  | Energy difference      :       0.48291523 eV

  Spin-orbit-coupled "band gap" along reciprocal space direction number:   15
  | Lowest unoccupied state:      -5.21155230 eV
  | Highest occupied state :      -5.57858672 eV
  | Energy difference      :       0.36703442 eV


  Treating all    2 k-points in band plot segment #  16:

  Scalar-relativistic "band gap" along reciprocal space direction number:   16
  | Lowest unoccupied state:      -5.21155231 eV
  | Highest occupied state :      -5.69446754 eV
  | Energy difference      :       0.48291523 eV

  Spin-orbit-coupled "band gap" along reciprocal space direction number:   16
  | Lowest unoccupied state:      -5.21155230 eV
  | Highest occupied state :      -5.57858672 eV
  | Energy difference      :       0.36703442 eV


  Treating all    2 k-points in band plot segment #  17:

  Scalar-relativistic "band gap" along reciprocal space direction number:   17
  | Lowest unoccupied state:      -5.21155231 eV
  | Highest occupied state :      -5.69446754 eV
  | Energy difference      :       0.48291523 eV

  Spin-orbit-coupled "band gap" along reciprocal space direction number:   17
  | Lowest unoccupied state:      -5.21155230 eV
  | Highest occupied state :      -5.57858672 eV
  | Energy difference      :       0.36703442 eV


  Treating all    2 k-points in band plot segment #  18:

  Scalar-relativistic "band gap" along reciprocal space direction number:   18
  | Lowest unoccupied state:      -5.21155231 eV
  | Highest occupied state :      -5.69446754 eV
  | Energy difference      :       0.48291523 eV

  Spin-orbit-coupled "band gap" along reciprocal space direction number:   18
  | Lowest unoccupied state:      -5.21155230 eV
  | Highest occupied state :      -5.57858672 eV
  | Energy difference      :       0.36703442 eV


  Treating all    2 k-points in band plot segment #  19:

  Scalar-relativistic "band gap" along reciprocal space direction number:   19
  | Lowest unoccupied state:      -5.21155231 eV
  | Highest occupied state :      -5.69446754 eV
  | Energy difference      :       0.48291523 eV

  Spin-orbit-coupled "band gap" along reciprocal space direction number:   19
  | Lowest unoccupied state:      -5.21155230 eV
  | Highest occupied state :      -5.57858672 eV
  | Energy difference      :       0.36703442 eV

  Scalar-relativistic "band gap" of total set of bands:
  | Lowest unoccupied state:      -5.21155231 eV
  | Highest occupied state :      -5.69446754 eV
  | Energy difference      :       0.48291523 eV


  Spin-orbit-coupled "band gap" of total set of bands:
  | Lowest unoccupied state:      -5.21155230 eV
  | Highest occupied state :      -5.57858672 eV
  | Energy difference      :       0.36703442 eV



  Band Structure                                          :  max(cpu_time) wall_clock(cpu1)
  | Total Time                                            :          9.982           10.010
------------------------------------------------------------

------------------------------------------------------------------------------
  Final output of selected total energy values:

  The following output summarizes some interesting total energy values
  at the end of a run (AFTER all relaxation, molecular dynamics, etc.).

  | Total energy of the DFT / Hartree-Fock s.c.f. calculation      :        -459974.086847037 eV
  | Final zero-broadening corrected energy (caution - metals only) :        -459974.086847037 eV
  | Total energy after non-SC SOC correction (DO NOT USE)          :        -459974.332801808 eV
  | For reference only, the value of 1 Hartree used in FHI-aims is :             27.211384500 eV
  | For reference only, the overall average (free atom contribution
  | + realspace contribution) of the electrostatic potential after
  | s.c.f. convergence is                                          :            -14.790716189 eV

  Before relying on these values, please be sure to understand exactly which
  total energy value is referred to by a given number. Different objects may
  all carry the same name 'total energy'. Definitions:

  Total energy of the DFT / Hartree-Fock s.c.f. calculation:
  | Note that this energy does not include ANY quantities calculated after the
  | s.c.f. cycle, in particular not ANY RPA, MP2, etc. many-body perturbation terms.

  Final zero-broadening corrected energy:
  | For metallic systems only, a broadening of the occupation numbers at the Fermi
  | level can be extrapolated back to zero broadening by an electron-gas inspired
  | formula. For all systems that are not real metals, this value can be
  | meaningless and should be avoided.

------------------------------------------------------------------------------
  Methods described in the following list of references were used in this FHI-aims run.
  If you publish the results, please make sure to cite these reference if they apply.
  FHI-aims is an academic code, and for our developers (often, Ph.D. students
  and postdocs), scientific credit in the community is essential.
  Thank you for helping us!

  For any use of FHI-aims, please cite:

    Volker Blum, Ralf Gehrke, Felix Hanke, Paula Havu, Ville Havu,
    Xinguo Ren, Karsten Reuter, and Matthias Scheffler
    'Ab initio molecular simulations with numeric atom-centered orbitals'
    Computer Physics Communications 180, 2175-2196 (2009)
    http://doi.org/10.1016/j.cpc.2009.06.022


  The provided symmetry information was generated with SPGlib:

    Atsushi Togo, Yusuke Seto, Dimitar Pashov
    SPGlib 1.7.3 obtained from http://spglib.sourceforge.net
    Copyright (C) 2008 Atsushi Togo


  For second-variational spin-orbit coupling used in your run, please cite:

    William P. Huhn and Volker Blum,
    'One-hundred-three compound band-structure benchmark of post-self-consistent'
    'spin-orbit coupling treatments in density functional theory'
    Phys. Rev. Materials 1, 033803 (2017).


  The ELSI infrastructure was used in your run to solve the Kohn-Sham electronic structure.
  Please check out http://elsi-interchange.org to learn more.
  If scalability is important for your project, please acknowledge ELSI by citing:

    V. W-z. Yu, F. Corsetti, A. Garcia, W. P. Huhn, M. Jacquelin, W. Jia,
    B. Lange, L. Lin, J. Lu, W. Mi, A. Seifitokaldani, A. Vazquez-Mayagoitia,
    C. Yang, H. Yang, and V. Blum
    'ELSI: A unified software interface for Kohn-Sham electronic structure solvers'
    Computer Physics Communications 222, 267-285 (2018).
    http://doi.org/10.1016/j.cpc.2017.09.007


  For the real-space grid partitioning and parallelization used in this calculation, please cite:

    Ville Havu, Volker Blum, Paula Havu, and Matthias Scheffler,
    'Efficient O(N) integration for all-electron electronic structure calculation'
    'using numerically tabulated basis functions'
    Journal of Computational Physics 228, 8367-8379 (2009).
    http://doi.org/10.1016/j.jcp.2009.08.008

  Of course, there are many other important community references, e.g., those cited in the
  above references. Our list is limited to references that describe implementations in the
  FHI-aims code. The reason is purely practical (length of this list) - please credit others as well.

------------------------------------------------------------
          Leaving FHI-aims.
          Date     :  20240229, Time     :  171542.289

          Computational steps:
          | Number of self-consistency cycles          :           15
          | Number of SCF (re)initializations          :            1

          Detailed time accounting                     :  max(cpu_time)    wall_clock(cpu1)
          | Total time                                  :       67.970 s          67.986 s
          | Preparation time                            :        0.447 s           0.445 s
          | Boundary condition initalization            :        0.038 s           0.038 s
          | Grid partitioning                           :        0.099 s           0.098 s
          | Preloading free-atom quantities on grid     :        0.286 s           0.286 s
          | Free-atom superposition energy              :        0.034 s           0.035 s
          | Total time for integrations                 :       13.348 s          13.351 s
          | Total time for solution of K.-S. equations  :        1.773 s           1.771 s
          | Total time for density & force components   :       27.130 s          27.129 s
          | Total time for mixing & preconditioning     :        2.662 s           2.662 s
          | Total time for Hartree multipole update     :        0.032 s           0.032 s
          | Total time for Hartree multipole sum        :        3.820 s           3.819 s
          | Total time for total energy evaluation      :        0.013 s           0.014 s
          | Total time NSC force correction             :        1.844 s           1.845 s
          | Total time for scaled ZORA corrections      :        0.000 s           0.000 s
          | Total time for perturbative SOC             :        6.249 s           6.249 s
          | Total time for band structures, DOS         :       10.009 s          10.010 s

          Partial memory accounting:
          | Residual value for overall tracked memory usage across tasks:     0.000000 MB (should be 0.000000 MB)
          | Peak values for overall tracked memory usage:
          |   Minimum:       46.782 MB (on task 33 after allocating potential_shell)
          |   Maximum:       48.317 MB (on task 28 after allocating potential_shell)
          |   Average:       47.597 MB
          | Largest tracked array allocation:
          |   Minimum:       14.318 MB (soc_matrix on task  0)
          |   Maximum:       14.318 MB (soc_matrix on task  0)
          |   Average:       14.318 MB
          Note:  These values currently only include a subset of arrays which are explicitly tracked.
          The "true" memory usage will be greater.

          Have a nice day.
------------------------------------------------------------
