------------------------------------------------------------
          Invoking FHI-aims ...

          When using FHI-aims, please cite the following reference:

            Volker Blum, Ralf Gehrke, Felix Hanke, Paula Havu,
            Ville Havu, Xinguo Ren, Karsten Reuter, and Matthias Scheffler,
            'Ab Initio Molecular Simulations with Numeric Atom-Centered Orbitals',
            Computer Physics Communications 180, 2175-2196 (2009)

          In addition, many other developments in FHI-aims are likely important for
          your particular application. If so, please cite them. A partial list of references
          is written at the end of this file. Thank you for giving credit to the authors
          of these developments.

          For general information about FHI-aims please find us at

            https://fhi-aims.org

          Online tutorials can be found at

            https://fhi-aims-club.gitlab.io/tutorials/tutorials-overview/

          For any questions about FHI-aims, please visit our slack channel at

            https://fhi-aims.slack.com

          and our main development and support site at

            https://aims-git.rz-berlin.mpg.de .

          The latter site, in particular, has a wiki to collect information, as well
          as an issue tracker to log discussions, suggest improvements, and report issues
          or bugs. https://aims-git.rz-berlin.mpg.de is also the main development site
          of the project and all new and updated code versions can be obtained there.
          Please send an email to aims-coordinators@fhi-berlin.mpg.de and we will add
          you to these sites. They are for you and everyone is welcome there.

------------------------------------------------------------



  Date     :  20240301, Time     :  231356.796
  Time zero on CPU 1             :   0.373476000000000E+00  s.
  Internal wall clock time zero  :           478566836.796  s.

  FHI-aims created a unique identifier for this run for later identification
  aims_uuid : C321EB1D-E049-4280-AFC2-416FB0C9E4C3

  Build configuration of the current instance of FHI-aims
  -------------------------------------------------------
  FHI-aims version      : 230629
  Commit number         : 1bccf0f48
  CMake host system     : Linux-5.14.21-150400.24.66-default
  CMake version         : 3.26.4
  Fortran compiler      : /mpcdf/soft/SLE_15/packages/x86_64/intel_oneapi/2022.3/mpi/2021.7.1/bin/mpiifort (Intel) version 2021.7.0.20221019
  Fortran compiler flags: -O3 -ip -fp-model precise
  C compiler            : /mpcdf/soft/SLE_15/packages/x86_64/intel_oneapi/2022.3/mpi/2021.7.1/bin/mpiicc (Intel) version 2021.7.0.20221019
  C compiler flags      : -O3 -ip -fp-model precise -std=gnu99
  C++ compiler          : /mpcdf/soft/SLE_15/packages/x86_64/intel/2021.7.1/bin/icpc (Intel) version 2021.7.0.20221019
  C++ compiler flags    : -O3 -ip -fp-model precise
  CUDA compiler         : nvcc
  CUDA compiler flags   : -O3 -DAdd_ -arch=sm_70 -lcublas
  HIP compiler          :
  HIP compiler flags    :
  HIP GPU arch          :
  ELPA2 kernel          : AVX512
  Using MPI
  Using ScaLAPACK
  Using LibXC
  Using i-PI
  Using RLSY
  Linking against: /mpcdf/soft/SLE_15/packages/x86_64/intel_oneapi/2022.3/mkl/latest/lib/intel64/libmkl_scalapack_lp64.so
                   /mpcdf/soft/SLE_15/packages/x86_64/intel_oneapi/2022.3/mkl/latest/lib/intel64/libmkl_blacs_intelmpi_lp64.so
                   /mpcdf/soft/SLE_15/packages/x86_64/intel_oneapi/2022.3/mkl/latest/lib/intel64/libmkl_intel_lp64.so
                   /mpcdf/soft/SLE_15/packages/x86_64/intel_oneapi/2022.3/mkl/latest/lib/intel64/libmkl_sequential.so
                   /mpcdf/soft/SLE_15/packages/x86_64/intel_oneapi/2022.3/mkl/latest/lib/intel64/libmkl_core.so
                   /mpcdf/soft/SLE_15/packages/x86_64/cuda/11.4.2/lib64/libcublas.so
                   /mpcdf/soft/SLE_15/packages/x86_64/cuda/11.4.2/lib64/libcudart.so

  Using       10 parallel tasks.
  Task        0 on host talos01 reporting.
  Task        1 on host talos01 reporting.
  Task        2 on host talos01 reporting.
  Task        3 on host talos01 reporting.
  Task        4 on host talos01 reporting.
  Task        5 on host talos01 reporting.
  Task        6 on host talos01 reporting.
  Task        7 on host talos01 reporting.
  Task        8 on host talos01 reporting.
  Task        9 on host talos01 reporting.

  Obtaining array dimensions for all initial allocations:
  
  -----------------------------------------------------------------------
  Parsing control.in (first pass over file, find array dimensions only).
  The contents of control.in will be repeated verbatim below
  unless switched off by setting 'verbatim_writeout .false.' .
  in the first line of control.in .
  -----------------------------------------------------------------------
  
  #===============================================================================
  # Created using the Atomic Simulation Environment (ASE)
  
  # Fri Mar  1 23:12:51 2024
  
  #===============================================================================
  xc                                 pbesol
  include_spin_orbit
  k_grid                             10 10 10
  sc_accuracy_rho                    1e-06
  sc_accuracy_forces                 0.0001
  relativistic                       atomic_zora scalar
  walltime                           40000.0
  sc_init_iter                       200
  output                             band   0.00000  0.00000  0.00000 0.0 0.0 0.0 2
  output                             band   0.00000 -0.00852 -0.00852 0.0 0.0 0.0 2
  output                             band   0.00000  0.00852  0.00852 0.0 0.0 0.0 2
  output                             band  -0.00852  0.00000 -0.00852 0.0 0.0 0.0 2
  output                             band   0.00852  0.00000  0.00852 0.0 0.0 0.0 2
  output                             band  -0.00852 -0.00852  0.00000 0.0 0.0 0.0 2
  output                             band   0.00852  0.00852  0.00000 0.0 0.0 0.0 2
  output                             band  -0.00852 -0.00852 -0.01704 0.0 0.0 0.0 2
  output                             band   0.00852  0.00852  0.01704 0.0 0.0 0.0 2
  output                             band  -0.00852  0.00852  0.00000 0.0 0.0 0.0 2
  output                             band   0.00852 -0.00852  0.00000 0.0 0.0 0.0 2
  output                             band  -0.00852 -0.01704 -0.00852 0.0 0.0 0.0 2
  output                             band   0.00852  0.01704  0.00852 0.0 0.0 0.0 2
  output                             band  -0.00852  0.00000  0.00852 0.0 0.0 0.0 2
  output                             band   0.00852  0.00000 -0.00852 0.0 0.0 0.0 2
  output                             band  -0.01704 -0.00852 -0.00852 0.0 0.0 0.0 2
  output                             band   0.01704  0.00852  0.00852 0.0 0.0 0.0 2
  output                             band   0.00000 -0.00852  0.00852 0.0 0.0 0.0 2
  output                             band   0.00000  0.00852 -0.00852 0.0 0.0 0.0 2
  #===============================================================================
  
  ################################################################################
  #
  #  FHI-aims code project
  #  Volker Blum, 2018
  #
  #  Suggested "intermediate" defaults for As atom (to be pasted into control.in file)
  #
  #  2020/09/15 These "intermediate" settings are identical to past "tight" defaults
  #             and differ only in the "g" function that is now included in "tight".
  #
  ################################################################################
    species        As
  #
      nucleus             33
      mass                74.92160
  #
      l_hartree           6
  #
      cut_pot             4.0          2.0  1.0
      basis_dep_cutoff    1e-4
  #
      radial_base         55 7.0
      radial_multiplier   2
      angular_grids       specified
        division   0.3346   50
        division   0.6815  110
        division   0.9821  194
        division   1.2024  302
        division   1.4689  434
  #      division   1.5802  590
  #      division   1.6697  770
  #      division   1.7649  974
  #      division   2.6635 1202
  #      outer_grid  1202
        outer_grid  434
  ################################################################################
  #
  #  Definition of "minimal" basis
  #
  ################################################################################
  #     valence basis states
      valence      4  s   2.
      valence      4  p   3.
      valence      3  d  10.
  #     ion occupancy
      ion_occ      4  s   1.
      ion_occ      4  p   2.
      ion_occ      3  d  10.
  ################################################################################
  #
  #  Suggested additional basis functions. For production calculations,
  #  uncomment them one after another (the most important basis functions are
  #  listed first).
  #
  #  Constructed for dimers: 1.75 A, 2.10 A, 2.50 A, 3.00 A, 4.00 A
  #
  ################################################################################
  #  "First tier" - improvements: -385.12 meV to -54.94 meV
       hydro 3 d 4
       hydro 2 p 1.5
       hydro 4 f 6.8
       ionic 4 s auto
  #  "Second tier" - improvements: -22.14 meV to -3.21 meV
  #     hydro 5 g 10
  #     hydro 6 h 13.6
  #     hydro 4 p 4.3
  #     hydro 4 f 15.6
  #     hydro 4 d 5.4
  #     hydro 1 s 0.6
  #  "Third tier" - improvements: -0.57 meV to -0.13 meV
  #     hydro 5 g 16.4
  #     hydro 4 f 7.4
  #     hydro 5 d 7.4
  #     ionic 4 p auto
  #     hydro 3 s 2.6
  #  "Fourth tier" - improvements: -0.30 meV and below
  #     hydro 3 p 3
  #     hydro 6 h 18.4
  #     hydro 5 d 11.2
  #     hydro 5 f 15.2
  #     hydro 5 g 13.6
  #     hydro 5 s 6.2
  ################################################################################
  #
  #  FHI-aims code project
  #  Volker Blum, 2018
  #
  #  Suggested "intermediate" defaults for Ga atom (to be pasted into control.in file)
  #
  #  2020/09/15 These "intermediate" settings are identical to past "tight" defaults
  #             and differ only in the "g" function that is now included in "tight".
  #
  ################################################################################
    species        Ga
  #     global species definitions
      nucleus             31
      mass                69.723
  #
      l_hartree           6
  #
      cut_pot             4.0          2.0  1.0
      basis_dep_cutoff    1e-4
  #
      radial_base         54 7.0
      radial_multiplier   2
      angular_grids       specified
        division   0.3498   50
        division   0.6591  110
        division   0.9587  194
        division   1.2234  302
        division   1.4453  434
  #      division   1.5860  590
  #      division   1.8791  770
  #      division   1.9525  974
  #      division   2.3801 1202
  #      outer_grid  1202
        outer_grid  434
  ################################################################################
  #
  #  Definition of "minimal" basis
  #
  ################################################################################
  #     valence basis states
      valence      4  s   2.
      valence      4  p   1.
      valence      3  d  10.
  #     ion occupancy
      ion_occ      4  s   1.
      ion_occ      3  p   6.
      ion_occ      3  d  10.
  ################################################################################
  #
  #  Suggested additional basis functions. For production calculations,
  #  uncomment them one after another (the most important basis functions are
  #  listed first).
  #
  #  Constructed for dimers: 1.85 A, 2.10 A, 2.45 A, 3.00 A, 4.00 A
  #
  ################################################################################
  #  "First tier" - improvements: -222.33 meV to -26.19 meV
       hydro 2 p 1.2
       hydro 3 d 3.8
       hydro 4 f 6.8
       ionic 4 s auto
  #  "Second tier" - improvements: -11.68 meV to -1.61 meV
  #     hydro 5 g 10
  #     hydro 4 p 3.6
  #     hydro 4 f 13.2
  #     hydro 6 h 14.4
  #     hydro 4 d 5.2
  #     hydro 1 s 0.45
  #  "Third tier" - improvements: -0.64 meV to -0.15 meV
  #     hydro 3 p 3.4
  #     hydro 3 s 2.2
  #     hydro 5 g 14
  #     hydro 4 f 6.2
  #     hydro 5 d 7.2
  #  "Fourth tier"  -improvements: -0.12 meV and below
  #     hydro 3 s 3.8
  #     hydro 5 f 27.2
  #     hydro 6 h 16
  #     hydro 5 g 9.2
  #     hydro 4 d 8.6
  #     hydro 2 p 3.6
  
  
  -----------------------------------------------------------------------
  Completed first pass over input file control.in .
  -----------------------------------------------------------------------
  
  
  -----------------------------------------------------------------------
  Parsing geometry.in (first pass over file, find array dimensions only).
  The contents of geometry.in will be repeated verbatim below
  unless switched off by setting 'verbatim_writeout .false.' .
  in the first line of geometry.in .
  -----------------------------------------------------------------------
  
  #===============================================================================
  # Created using the Atomic Simulation Environment (ASE)
  
  # Fri Mar  1 23:12:51 2024
  
  #=======================================================
  lattice_vector 0.0000000000000000 2.8331573099999998 2.8331573099999998
  lattice_vector 2.8331573099999998 0.0000000000000000 2.8331573099999998
  lattice_vector 2.8331573099999998 2.8331573099999998 0.0000000000000000
  atom_frac 0.0000000000000000 0.0000000000000000 -0.0000000000000000 As
  atom_frac 0.2500000000000000 0.2500000000000000 0.2500000000000000 Ga
  
  -----------------------------------------------------------------------
  Completed first pass over input file geometry.in .
  -----------------------------------------------------------------------
  

  Basic array size parameters:
  | Number of species                 :        2
  | Number of atoms                   :        2
  | Number of lattice vectors         :        3
  | Max. basis fn. angular momentum   :        3
  | Max. atomic/ionic basis occupied n:        4
  | Max. number of basis fn. types    :        3
  | Max. radial fns per species/type  :        8
  | Max. logarithmic grid size        :     1417
  | Max. radial integration grid size :      111
  | Max. angular integration grid size:      434
  | Max. angular grid division number :        8
  | Radial grid for Hartree potential :     1417
  | Number of spin channels           :        1

------------------------------------------------------------
          Reading file control.in.
------------------------------------------------------------
  XC: Using PBEsol gradient-corrected functionals.
  Calculating non-self-consistent second-variational spin-orbit coupling after scf-cycle
  Found k-point grid:        10        10        10
  Convergence accuracy of self-consistent charge density:  0.1000E-05
  Convergence accuracy of forces:  0.1000E-03
  Scalar relativistic treatment of kinetic energy: on-site free-atom approximation to ZORA.
  Requesting a walltime of    40000 seconds.
  Number of s.-c. iterations prior to a full restart of mixing :   200

  Plot band    1
  | begin  0.000000  0.000000  0.000000
  | end    0.000000  0.000000  0.000000
  | number of points:    2

  Plot band    2
  | begin  0.000000 -0.008520 -0.008520
  | end    0.000000  0.000000  0.000000
  | number of points:    2

  Plot band    3
  | begin  0.000000  0.008520  0.008520
  | end    0.000000  0.000000  0.000000
  | number of points:    2

  Plot band    4
  | begin -0.008520  0.000000 -0.008520
  | end    0.000000  0.000000  0.000000
  | number of points:    2

  Plot band    5
  | begin  0.008520  0.000000  0.008520
  | end    0.000000  0.000000  0.000000
  | number of points:    2

  Plot band    6
  | begin -0.008520 -0.008520  0.000000
  | end    0.000000  0.000000  0.000000
  | number of points:    2

  Plot band    7
  | begin  0.008520  0.008520  0.000000
  | end    0.000000  0.000000  0.000000
  | number of points:    2

  Plot band    8
  | begin -0.008520 -0.008520 -0.017040
  | end    0.000000  0.000000  0.000000
  | number of points:    2

  Plot band    9
  | begin  0.008520  0.008520  0.017040
  | end    0.000000  0.000000  0.000000
  | number of points:    2

  Plot band   10
  | begin -0.008520  0.008520  0.000000
  | end    0.000000  0.000000  0.000000
  | number of points:    2

  Plot band   11
  | begin  0.008520 -0.008520  0.000000
  | end    0.000000  0.000000  0.000000
  | number of points:    2

  Plot band   12
  | begin -0.008520 -0.017040 -0.008520
  | end    0.000000  0.000000  0.000000
  | number of points:    2

  Plot band   13
  | begin  0.008520  0.017040  0.008520
  | end    0.000000  0.000000  0.000000
  | number of points:    2

  Plot band   14
  | begin -0.008520  0.000000  0.008520
  | end    0.000000  0.000000  0.000000
  | number of points:    2

  Plot band   15
  | begin  0.008520  0.000000 -0.008520
  | end    0.000000  0.000000  0.000000
  | number of points:    2

  Plot band   16
  | begin -0.017040 -0.008520 -0.008520
  | end    0.000000  0.000000  0.000000
  | number of points:    2

  Plot band   17
  | begin  0.017040  0.008520  0.008520
  | end    0.000000  0.000000  0.000000
  | number of points:    2

  Plot band   18
  | begin  0.000000 -0.008520  0.008520
  | end    0.000000  0.000000  0.000000
  | number of points:    2

  Plot band   19
  | begin  0.000000  0.008520 -0.008520
  | end    0.000000  0.000000  0.000000
  | number of points:    2
 
  Reading configuration options for species As                  .
  | Found nuclear charge :  33.0000
  | Found atomic mass :    74.9216000000000      amu
  | Found l_max for Hartree potential  :   6
  | Found cutoff potl. onset [A], width [A], scale factor :    4.00000    2.00000    1.00000
  | Threshold for basis-dependent cutoff potential is   0.100000E-03
  | Found data for basic radial integration grid :    55 points, outermost radius =    7.000 A
  | Found multiplier for basic radial grid :   2
  | Found angular grid specification: user-specified.
  | Specified grid contains     6 separate shells.
  | Check grid settings after all constraints further below.
  | Found free-atom valence shell :  4 s   2.000
  | Found free-atom valence shell :  4 p   3.000
  | Found free-atom valence shell :  3 d  10.000
  | Found free-ion valence shell :  4 s   1.000
  | Found free-ion valence shell :  4 p   2.000
  | Found free-ion valence shell :  3 d  10.000
  | Found hydrogenic basis function :  3 d   4.000
  | Found hydrogenic basis function :  2 p   1.500
  | Found hydrogenic basis function :  4 f   6.800
  | Found ionic basis function :  4 s , default cutoff radius.
  Species As                  : Missing cutoff potential type.
  Defaulting to exp(1/x)/(1-x)^2 type cutoff potential.
  Species As: No 'logarithmic' tag. Using default grid for free atom:
  | Default logarithmic grid data [bohr] : 0.1000E-03 0.1000E+03 0.1012E+01
  | Will include ionic basis functions of  2.0-fold positive As                   ion.
  Species As: On-site basis accuracy parameter (for Gram-Schmidt orthonormalisation) not specified.
  Using default value basis_acc =  0.1000000E-03.
  Species As                  : Using default innermost maximum threshold i_radial=  2 for radial functions.
  Species As                  : Default cutoff onset for free atom density etc. : 0.40000000E+01 AA.
  Species As                  : Basic radial grid will be enhanced according to radial_multiplier =   2, to contain   111 grid points.
 
  Reading configuration options for species Ga                  .
  | Found nuclear charge :  31.0000
  | Found atomic mass :    69.7230000000000      amu
  | Found l_max for Hartree potential  :   6
  | Found cutoff potl. onset [A], width [A], scale factor :    4.00000    2.00000    1.00000
  | Threshold for basis-dependent cutoff potential is   0.100000E-03
  | Found data for basic radial integration grid :    54 points, outermost radius =    7.000 A
  | Found multiplier for basic radial grid :   2
  | Found angular grid specification: user-specified.
  | Specified grid contains     6 separate shells.
  | Check grid settings after all constraints further below.
  | Found free-atom valence shell :  4 s   2.000
  | Found free-atom valence shell :  4 p   1.000
  | Found free-atom valence shell :  3 d  10.000
  | Found free-ion valence shell :  4 s   1.000
  | Found free-ion valence shell :  3 p   6.000
  | Found free-ion valence shell :  3 d  10.000
  | Found hydrogenic basis function :  2 p   1.200
  | Found hydrogenic basis function :  3 d   3.800
  | Found hydrogenic basis function :  4 f   6.800
  | Found ionic basis function :  4 s , default cutoff radius.
  Species Ga                  : Missing cutoff potential type.
  Defaulting to exp(1/x)/(1-x)^2 type cutoff potential.
  Species Ga: No 'logarithmic' tag. Using default grid for free atom:
  | Default logarithmic grid data [bohr] : 0.1000E-03 0.1000E+03 0.1012E+01
  | Will include ionic basis functions of  2.0-fold positive Ga                   ion.
  Species Ga: On-site basis accuracy parameter (for Gram-Schmidt orthonormalisation) not specified.
  Using default value basis_acc =  0.1000000E-03.
  Species Ga                  : Using default innermost maximum threshold i_radial=  2 for radial functions.
  Species Ga                  : Default cutoff onset for free atom density etc. : 0.40000000E+01 AA.
  Species Ga                  : Basic radial grid will be enhanced according to radial_multiplier =   2, to contain   109 grid points.
 
  Finished reading input file 'control.in'.
 
------------------------------------------------------------


------------------------------------------------------------
          Reading geometry description geometry.in.
------------------------------------------------------------
  | The smallest distance between any two atoms is         2.45358620 AA.
  | The first atom of this pair is atom number                      1 .
  | The second atom of this pair is atom number                     2 .
  | Wigner-Seitz cell of the first atom image           0     0     1 .
  | (The Wigner-Seitz cell of the second atom is 0 0 0  by definition.)

  Symmetry information by spglib:
  | Precision set to  0.1E-04
  | Number of Operations  : 24
  | Space group           : 216
  | International         : F-43m
  | Schoenflies           : Td^2
  Input structure read successfully.
  The structure contains        2 atoms,  and a total of         64.000 electrons.

  Input geometry:
  | Unit cell:
  |        0.00000000        2.83315731        2.83315731
  |        2.83315731        0.00000000        2.83315731
  |        2.83315731        2.83315731        0.00000000
  | Atomic structure:
  |       Atom                x [A]            y [A]            z [A]
  |    1: Species As            0.00000000        0.00000000        0.00000000
  |    2: Species Ga            1.41657865        1.41657865        1.41657865

  Lattice parameters for 3D lattice (in Angstroms) :     4.006689    4.006689    4.006689
  Angle(s) between unit vectors (in degrees)       :    60.000000   60.000000   60.000000


  Quantities derived from the lattice vectors (in Angstrom^-1):
  | Reciprocal lattice vector 1: -1.108866  1.108866  1.108866
  | Reciprocal lattice vector 2:  1.108866 -1.108866  1.108866
  | Reciprocal lattice vector 3:  1.108866  1.108866 -1.108866
  | Unit cell volume                               :   0.454823E+02  Angstrom^3

  Fractional coordinates:
                         L1                L2                L3
       atom_frac         0.00000000        0.00000000        0.00000000  As
       atom_frac         0.25000000        0.25000000        0.25000000  Ga

 
  Finished reading input file 'geometry.in'.
 

 
  Consistency checks for stacksize environment parameter are next.
 
  | Maximum stacksize for task 0: unlimited
  | Maximum stacksize for task 1: unlimited
  | Maximum stacksize for task 2: unlimited
  | Maximum stacksize for task 3: unlimited
  | Maximum stacksize for task 4: unlimited
  | Maximum stacksize for task 5: unlimited
  | Maximum stacksize for task 6: unlimited
  | Maximum stacksize for task 7: unlimited
  | Maximum stacksize for task 8: unlimited
  | Maximum stacksize for task 9: unlimited
  | Current stacksize for task 0: unlimited
  | Current stacksize for task 1: unlimited
  | Current stacksize for task 2: unlimited
  | Current stacksize for task 3: unlimited
  | Current stacksize for task 4: unlimited
  | Current stacksize for task 5: unlimited
  | Current stacksize for task 6: unlimited
  | Current stacksize for task 7: unlimited
  | Current stacksize for task 8: unlimited
  | Current stacksize for task 9: unlimited
 
  Consistency checks for the contents of control.in are next.
 
  MPI_IN_PLACE appears to work with this MPI implementation.
  | Keeping use_mpi_in_place .true. (see manual).
  Target number of points in a grid batch is not set. Defaulting to  100
  Method for grid partitioning is not set. Defaulting to parallel hash+maxmin partitioning.
  Batch size limit is not set. Defaulting to    200
  By default, will store active basis functions for each batch.
  If in need of memory, prune_basis_once .false. can be used to disable this option.
  communication_type for Hartree potential was not specified.
  Defaulting to calc_hartree .
  Defaulting to Pulay charge density mixer.
  Pulay mixer: Number of relevant iterations not set.
  Defaulting to    8 iterations.
  Pulay mixer: Number of initial linear mixing iterations not set.
  Defaulting to    0 iterations.
  Work space size for distributed Hartree potential not set.
  Defaulting to   0.200000E+03 MB.
  Mixing parameter for charge density mixing has not been set.
  Using default: charge_mix_param =     0.0500.
  The mixing parameter will be adjusted in iteration number     2 of the first full s.c.f. cycle only.
  Algorithm-dependent basis array size parameters:
  | n_max_pulay                         :        8
  Maximum number of self-consistency iterations not provided.
  Presetting  1000 iterations.
  Presetting a factor      1.000 between actual scf density residual
  and density convergence criterion sc_accuracy_rho below which sc_init_iter
  takes no effect.
  Geometry relaxation not requested: no relaxation will be performed.
  Forces evaluation will include force correction term due to incomplete self-consistency (default).
  Handling of forces: Unphysical translation and rotation will be removed from forces.
  No accuracy limit for integral partition fn. given. Defaulting to  0.1000E-14.
  No threshold value for u(r) in integrations given. Defaulting to  0.1000E-05.
  No occupation type (smearing scheme) given. Defaulting to Gaussian broadening, width =  0.1000E-01 eV.
  The width will be adjusted in iteration number     2 of the first full s.c.f. cycle only.
  S.C.F. convergence parameters will be adjusted in iteration number     2 of the first full s.c.f. cycle only.
  No accuracy for occupation numbers given. Defaulting to  0.1000E-12.
  No threshold value for occupation numbers given. Defaulting to  0.0000E+00.
  No accuracy for fermi level given. Defaulting to  0.1000E-19.
  Maximum # of iterations to find E_F not set. Defaulting to  200.
  Preferred method for the eigenvalue solver ('KS_method') not specified in 'control.in'.
  Defaulting to serial version, LAPACK (via ELSI), since more k-points than CPUs available.
  Will not use alltoall communication since running on < 1024 CPUs.
  Threshold for basis singularities not set.
  Default threshold for basis singularities:  0.1000E-04
  partition_type (choice of integration weights) for integrals was not specified.
  | Using a version of the partition function of Stratmann and coworkers ('stratmann_sparse').
  | At each grid point, the set of atoms used to build the partition table is smoothly restricted to
  | only those atoms whose free-atom density would be non-zero at that grid point.
  Partitioning for Hartree potential was not defined. Using partition_type for integrals.
  | Adjusted default value of keyword multip_moments_threshold to:       0.10000000E-11
  | This value may affect high angular momentum components of the Hartree potential in periodic systems.
  Spin handling was not defined in control.in. Defaulting to unpolarized case.
  Angular momentum expansion for Kerker preconditioner not set explicitly.
  | Using default value of   0
  No explicit requirement for turning off preconditioner.
  | By default, it will be turned off when the charge convergence reaches
  | sc_accuracy_rho  =   0.100000E-05
  No special mixing parameter while Kerker preconditioner is on.
  Using default: charge_mix_param =     0.0500.
  No q(lm)/r^(l+1) cutoff set for long-range Hartree potential.
  | Using default value of  0.100000E-09 .
  | Verify using the multipole_threshold keyword.
  Defaulting to new monopole extrapolation.
  Density update method: automatic selection selected.
  Using density matrix based charge density update.
  Using density matrix based charge density update.
  Using packed matrix style: index .
  Defaulting to use time-reversal symmetry for k-point grid.
  Charge integration errors on the 3D integration grid will be compensated
  by explicit normalization and distribution of residual charges.
  Use the "compensate_multipole_errors" flag to change this behaviour.
  Set 'collect_eigenvectors' to be '.true.' for all serial calculations. This is mandatory.
  Set 'collect_eigenvectors' to be '.true.' for KS_method lapack_fast and serial.
 
  Consistency checks for the contents of geometry.in are next.
 

  Range separation radius for Ewald summation (hartree_convergence_parameter):      4.07394704 bohr.
  Number of empty states per atom not set in control.in - providing a guess from actual geometry.
  | Total number of empty states used during s.c.f. cycle:       11
  If you use a very high smearing, use empty_states (per atom!) in control.in to increase this value.
  * Since a DOS, bandstructure or SOC calculation was requested, the number of empty states requested was INCREASED.
  | Number of empty states (old):   22.00000
  | Number of empty states (new):   32.00000

  Structure-dependent array size parameters: 
  | Maximum number of distinct radial functions  :       24
  | Maximum number of basis functions            :       68
  | Number of Kohn-Sham states (occupied + empty):       48
------------------------------------------------------------
  After read_input_data [GB]:    155.80

  Performing system and environment tests:
  *** Environment variable OMP_NUM_THREADS is set to 
  
  *** For performance reasons you might want to set it to 1
  | Checking for ScaLAPACK...
  | Testing pdtran()...
  | All pdtran() tests passed.
  After prepare_system [GB]:    155.72

------------------------------------------------------------
          Preparing all fixed parts of the calculation.
------------------------------------------------------------
  Determining machine precision:
    2.225073858507201E-308
  Setting up grids for atomic and cluster calculations.

  Creating wave function, potential, and density for free atoms.
  Runtime choices for atomic solver:
  | atomic solver xc        : PBE
  | compute density gradient: 1
  | compute kinetic density : F

  Species: As

  List of occupied orbitals and eigenvalues:
    n    l              occ      energy [Ha]    energy [eV]
    1    0           2.0000      -436.649520    -11881.8380
    2    0           2.0000       -54.755544     -1489.9742
    3    0           2.0000        -6.992637      -190.2793
    4    0           2.0000        -0.530794       -14.4436
    2    1           6.0000       -48.002396     -1306.2117
    3    1           6.0000        -4.910227      -133.6141
    4    1           3.0000        -0.189185        -5.1480
    3    2          10.0000        -1.492027       -40.6001


  Species: Ga

  List of occupied orbitals and eigenvalues:
    n    l              occ      energy [Ha]    energy [eV]
    1    0           2.0000      -380.499117    -10353.9078
    2    0           2.0000       -46.469610     -1264.5024
    3    0           2.0000        -5.436848      -147.9442
    4    0           2.0000        -0.323063        -8.7910
    2    1           6.0000       -40.443035     -1100.5110
    3    1           6.0000        -3.625385       -98.6518
    4    1           1.0000        -0.088117        -2.3978
    3    2          10.0000        -0.696999       -18.9663


  Adding cutoff potential to free-atom effective potential.
  Creating fixed part of basis set: Ionic, confined, hydrogenic.
 
  As                   ion:

  List of free ionic orbitals and eigenvalues:
    n    l      energy [Ha]    energy [eV]
    1    0      -437.521171    -11905.5568
    2    0       -55.607242     -1513.1500
    3    0        -7.840974      -213.3638
    4    0        -1.261898       -34.3380
    2    1       -48.854908     -1329.4097
    3    1        -5.758049      -156.6845
    4    1        -0.860696       -23.4207
    3    2        -2.335871       -63.5623


  List of ionic basis orbitals and eigenvalues:
    n    l      energy [Ha]    energy [eV]    outer radius [A]
    4    0        -1.261891       -34.3378       4.258644

 
  As                   hydrogenic:
 
  List of hydrogenic basis orbitals: 
    n    l      effective z      eigenvalue [eV]  inner max. [A]     outer max. [A]     outer radius [A]   
    3    2         4.000000       -24.1871           1.194291           1.194291           5.372135
    2    1         1.500000        -7.6128           1.400007           1.400007           5.438212
    4    3         6.800000       -39.3202           1.238904           1.238904           5.178681
 
 
  Ga                   ion:

  List of free ionic orbitals and eigenvalues:
    n    l      energy [Ha]    energy [eV]
    1    0      -381.269939    -10374.8829
    2    0       -47.220675     -1284.9399
    3    0        -6.191291      -168.4736
    4    0        -0.957864       -26.0648
    2    1       -41.195167     -1120.9775
    3    1        -4.379935      -119.1841
    3    2        -1.446562       -39.3629


  List of ionic basis orbitals and eigenvalues:
    n    l      energy [Ha]    energy [eV]    outer radius [A]
    4    0        -0.957856       -26.0646       4.760587

 
  Ga                   hydrogenic:
 
  List of hydrogenic basis orbitals: 
    n    l      effective z      eigenvalue [eV]  inner max. [A]     outer max. [A]     outer radius [A]   
    2    1         1.200000        -4.7493           1.725811           1.725811           5.445806
    3    2         3.800000       -21.8280           1.255894           1.255894           5.379637
    4    3         6.800000       -39.3202           1.240634           1.240634           5.185913
 
  Creating atomic-like basis functions for current effective potential.

  Species As                  :

  List of atomic basis orbitals and eigenvalues:
    n    l      energy [Ha]    energy [eV]    outer radius [A]
    1    0      -436.649520    -11881.8380       0.318942
    2    0       -54.755544     -1489.9742       0.912655
    3    0        -6.992637      -190.2793       2.486936
    4    0        -0.530794       -14.4436       5.306860
    2    1       -48.002396     -1306.2117       0.946748
    3    1        -4.910227      -133.6141       2.844895
    4    1        -0.189185        -5.1480       5.438212
    3    2        -1.492027       -40.6001       4.527073


  Species Ga                  :

  List of atomic basis orbitals and eigenvalues:
    n    l      energy [Ha]    energy [eV]    outer radius [A]
    1    0      -380.499117    -10353.9078       0.339519
    2    0       -46.469610     -1264.5024       0.983486
    3    0        -5.436848      -147.9442       2.780058
    4    0        -0.323063        -8.7910       5.379637
    2    1       -40.443035     -1100.5110       1.020225
    3    1        -3.625385       -98.6518       3.258922
    4    1        -0.088117        -2.3978       5.445806
    3    2        -0.696999       -18.9663       5.060655

  Assembling full basis from fixed parts.
  | Species As :   atomic orbital   1 s accepted.
  | Species As :   atomic orbital   2 s accepted.
  | Species As :   atomic orbital   3 s accepted.
  | Species As :    ionic orbital   4 s accepted.
  | Species As :   atomic orbital   4 s accepted.
  | Species As :   atomic orbital   2 p accepted.
  | Species As :   atomic orbital   3 p accepted.
  | Species As :   atomic orbital   4 p accepted.
  | Species As :    hydro orbital   2 p accepted.
  | Species As :   atomic orbital   3 d accepted.
  | Species As :    hydro orbital   3 d accepted.
  | Species As :    hydro orbital   4 f accepted.
  | Species Ga :   atomic orbital   1 s accepted.
  | Species Ga :   atomic orbital   2 s accepted.
  | Species Ga :   atomic orbital   3 s accepted.
  | Species Ga :    ionic orbital   4 s accepted.
  | Species Ga :   atomic orbital   4 s accepted.
  | Species Ga :   atomic orbital   2 p accepted.
  | Species Ga :   atomic orbital   3 p accepted.
  | Species Ga :   atomic orbital   4 p accepted.
  | Species Ga :    hydro orbital   2 p accepted.
  | Species Ga :   atomic orbital   3 d accepted.
  | Species Ga :    hydro orbital   3 d accepted.
  | Species Ga :    hydro orbital   4 f accepted.
 
  Basis size parameters after reduction:
  | Total number of radial functions:       24
  | Total number of basis functions :       68
 
  Per-task memory consumption for arrays in subroutine allocate_ext:
  |           8.708992MB.
  Testing on-site integration grid accuracy.
  |  Species  Function  <phi|h_atom|phi> (log., in eV)  <phi|h_atom|phi> (rad., in eV)
           1        1             -11881.8379867549             -11881.8374048622
           1        2              -1489.9741630771              -1489.9741530529
           1        3               -190.2793234935               -190.2793223341
           1        4                -14.1960327161                -14.1960324769
           1        5                  5.9274629900                  5.9274413386
           1        6              -1306.2116640294              -1306.2116626351
           1        7               -133.6140787212               -133.6140780872
           1        8                 -5.1494783706                 -5.1494878741
           1        9                  4.9946648260                  4.9944740976
           1       10                -40.6001171048                -40.6001169605
           1       11                  7.1867940614                  7.1867909443
           1       12                 21.1344938241                 21.1344949749
           2       13             -10353.9077629892             -10353.9073028320
           2       14              -1264.5024135447              -1264.5024070275
           2       15               -147.9441678780               -147.9441669488
           2       16                 -8.4148692911                 -8.4148689113
           2       17                  4.7381165936                  4.7380408929
           2       18              -1100.5109801210              -1100.5109796516
           2       19                -98.6517545591                -98.6517540185
           2       20                 -2.4084549803                 -2.4084810126
           2       21                  5.1682140600                  5.1680886137
           2       22                -18.9663196997                -18.9663195664
           2       23                  8.8349655596                  8.8349615208
           2       24                 22.8735609727                 22.8735619171

  Preparing densities etc. for the partition functions (integrals / Hartree potential).

  Preparations completed.
  max(cpu_time)          :      0.358 s.
  Wall clock time (cpu1) :      0.535 s.
------------------------------------------------------------
  After prepare_scf [GB]:    155.47

  Initializing index lists of integration centers etc. from given atomic structure:
  Mapping all atomic coordinates to central unit cell.

  Initializing the k-points
  Using symmetry for reducing the k-points
  | k-points reduced from:     1000 to      504
  | Number of k-points                             :       504
  The eigenvectors in the calculations are COMPLEX.
  | K-points in task   0:        50
  | K-points in task   1:        51
  | K-points in task   2:        51
  | K-points in task   3:        51
  | K-points in task   4:        51
  | K-points in task   5:        50
  | K-points in task   6:        50
  | K-points in task   7:        50
  | K-points in task   8:        50
  | K-points in task   9:        50
  | Number of basis functions in the Hamiltonian integrals :      2740
  | Number of basis functions in a single unit cell        :        68
  | Number of centers in hartree potential         :       810
  | Number of centers in hartree multipole         :       432
  | Number of centers in electron density summation:       324
  | Number of centers in basis integrals           :       336
  | Number of centers in integrals                 :       128
  | Number of centers in hamiltonian               :       324
  | Consuming       1449 KiB for k_phase.
  | Number of super-cells (origin) [n_cells]                     :        2197
  | Number of super-cells (after PM_index) [n_cells]             :         184
  | Number of super-cells in hamiltonian [n_cells_in_hamiltonian]:         184
  | Size of matrix packed + index [n_hamiltonian_matrix_size] :      194575
  After initialize_bc_dependent_lists [GB]:    155.44

------------------------------------------------------------
          Begin self-consistency loop: Initialization.

          Date     :  20240301, Time     :  231357.961
------------------------------------------------------------
  Available memory per node after initialize_hartree_non_periodic_ewald [GB]:    155.44
  | Estimated reciprocal-space cutoff momentum G_max:         2.38004104 bohr^-1 .
  | Reciprocal lattice points for long-range Hartree potential:      64
  Available memory per node after initialize_recip_hartree_potential [GB]:    155.44
  Available memory per node after initialize_scalapack [GB]:    155.44
  Available memory per node after aims_elsi_init_scf [GB]:    155.44
  Available memory per node after initialize_fixed_grids [GB]:    155.44
  Partitioning the integration grid into batches with parallel hashing+maxmin method.
  | Number of batches:      599
  | Maximal batch size:     106
  | Minimal batch size:      50
  | Average batch size:      77.963
  | Standard deviation of batch sizes:      13.269

  Integration load balanced across    10 MPI tasks.
  Work distribution over tasks is as follows:
  Task     0 has       4631 integration points.
  Task     1 has       4634 integration points.
  Task     2 has       4633 integration points.
  Task     3 has       4638 integration points.
  Task     4 has       4732 integration points.
  Task     5 has       4682 integration points.
  Task     6 has       4653 integration points.
  Task     7 has       4690 integration points.
  Task     8 has       4672 integration points.
  Task     9 has       4735 integration points.
  Available memory per node after partition_grid [GB]:    155.45
  Initializing partition tables, free-atom densities, potentials, etc. across the integration grid (initialize_grid_storage).
  | initialize_grid_storage: Actual outermost partition radius vs. multipole_radius_free
  | (-- VB: in principle, multipole_radius_free should be larger, hence this output)
  | Species        1: Confinement radius =              6.000000000000000 AA, multipole_radius_free =              6.070707973509038 AA.
  | Species        1: outer_partition_radius set to              6.070707973509038 AA .
  | Species        2: Confinement radius =              6.000000000000000 AA, multipole_radius_free =              6.005319660126857 AA.
  | Species        2: outer_partition_radius set to              6.005319660126857 AA .
  | The sparse table of interatomic distances needs       1086.29 kbyte instead of       903.17 kbyte of memory.
  | Using the partition_type stratmann_smoother will reduce your memory usage.
  | Net number of integration points:    46700
  | of which are non-zero points    :    37536
  | Numerical average free-atom electrostatic potential    :    -14.81985681 eV
  Available memory per node after initialize_grid_storage_p1 [GB]:    155.41
  Renormalizing the initial density to the exact electron count on the 3D integration grid.
  | Initial density: Formal number of electrons (from input files) :      64.0000000000
  | Integrated number of electrons on 3D grid     :      64.0019500032
  | Charge integration error                      :       0.0019500032
  | Normalization factor for density and gradient :       0.9999695321
  Renormalizing the free-atom superposition density to the exact electron count on the 3D integration grid.
  | Formal number of electrons (from input files) :      64.0000000000
  | Integrated number of electrons on 3D grid     :      64.0019500032
  | Charge integration error                      :       0.0019500032
  | Normalization factor for density and gradient :       0.9999695321
  Obtaining max. number of non-zero basis functions in each batch (get_n_compute_maxes).
  | Maximal number of non-zero basis functions:      964 in task     0
  | Maximal number of non-zero basis functions:      965 in task     1
  | Maximal number of non-zero basis functions:      936 in task     2
  | Maximal number of non-zero basis functions:      945 in task     3
  | Maximal number of non-zero basis functions:      954 in task     4
  | Maximal number of non-zero basis functions:      953 in task     5
  | Maximal number of non-zero basis functions:      945 in task     6
  | Maximal number of non-zero basis functions:      940 in task     7
  | Maximal number of non-zero basis functions:      970 in task     8
  | Maximal number of non-zero basis functions:      948 in task     9
  Available memory per node after get_n_compute_maxes_p1 [GB]:    155.41
  Allocating        2.490 MB for KS_eigenvector_complex
  Available memory per node after allocate_matrices [GB]:    155.38
  Available memory per node after init_comm_sparse_local_matrix_scalapack [GB]:    155.38
  Integrating Hamiltonian matrix: batch-based integration.
  Time summed over all CPUs for integration: real work        4.705 s, elapsed        4.798 s
  Available memory per node after integrate hamiltonian matrix [GB]:    155.25
  Integrating overlap matrix.
  Time summed over all CPUs for integration: real work        3.453 s, elapsed        3.582 s
  Available memory per node after integrate ovlp matrix [GB]:    155.22
  Available memory per node after ASI_callbacks invoke [GB]:    155.22
  Decreasing sparse matrix size:
  | Tolerance:  0.1000E-12
  Hamiltonian matrix
  | Array has   154354 nonzero elements out of   194575 elements
  | Sparsity factor is 0.207
  Overlap matrix
  | Array has   137614 nonzero elements out of   194575 elements
  | Sparsity factor is 0.293
  New size of hamiltonian matrix:      155277
  Available memory per node after save_overlap_scalapack [GB]:    155.22

  Updating Kohn-Sham eigenvalues and eigenvectors using ELSI and the (modified) LAPACK eigensolver.
  Singularity check in k-point 10, task 0 (analysis for other k-points/tasks may follow below):
  Overlap matrix is not singular
  | Lowest and highest eigenvalues :  0.1075E-02,  0.7851E+01
  Finished singularity check of overlap matrix
  | Time :     0.037 s
  Starting LAPACK eigensolver
  Finished Cholesky decomposition
  | Time :     0.034 s
  Finished transformation to standard eigenproblem
  | Time :     0.001 s
  Finished solving standard eigenproblem
  | Time :     0.002 s
  Finished back-transformation of eigenvectors
  | Time :     0.001 s

  Obtaining occupation numbers and electronic chemical potential using ELSI.
  | Note that, for insulating systems, the printed 'chemical potential' value is not uniquely defined.
  | It can be anywhere in the energy gap, as long as it correctly separates occupied and unoccupied states.
  | In systems with a gap, the physically relevant chemical potential is the VBM or HOMO.

  | Chemical potential (Fermi level):    -5.52610782 eV
  Available memory per node after advance_KS_solution [GB]:    155.21
  Writing Kohn-Sham eigenvalues.
  K-point:       1 at    0.000000    0.000000    0.000000 (in units of recip. lattice)

  State    Occupation    Eigenvalue [Ha]    Eigenvalue [eV]
      1       2.00000        -436.291851       -11872.10530
      2       2.00000        -380.157936       -10344.62377
      3       2.00000         -54.728287        -1489.23246
      4       2.00000         -47.993414        -1305.96725
      5       2.00000         -47.993414        -1305.96725
      6       2.00000         -47.993414        -1305.96725
      7       2.00000         -46.437051        -1263.61644
      8       2.00000         -40.427552        -1100.08966
      9       2.00000         -40.427552        -1100.08966
     10       2.00000         -40.427552        -1100.08966
     11       2.00000          -7.004376         -190.59876
     12       2.00000          -5.442124         -148.08773
     13       2.00000          -4.929308         -134.13329
     14       2.00000          -4.929308         -134.13329
     15       2.00000          -4.929308         -134.13329
     16       2.00000          -3.637624          -98.98477
     17       2.00000          -3.637624          -98.98477
     18       2.00000          -3.637624          -98.98477
     19       2.00000          -1.521256          -41.39549
     20       2.00000          -1.521256          -41.39549
     21       2.00000          -1.521256          -41.39549
     22       2.00000          -1.520694          -41.38018
     23       2.00000          -1.520694          -41.38018
     24       2.00000          -0.724690          -19.71983
     25       2.00000          -0.724690          -19.71983
     26       2.00000          -0.724690          -19.71983
     27       2.00000          -0.720881          -19.61618
     28       2.00000          -0.720881          -19.61618
     29       2.00000          -0.690585          -18.79177
     30       2.00000          -0.224974           -6.12186
     31       2.00000          -0.224974           -6.12186
     32       2.00000          -0.224974           -6.12186
     33       0.00000          -0.201604           -5.48592
     34       0.00000          -0.075257           -2.04785
     35       0.00000          -0.075257           -2.04785
     36       0.00000          -0.075257           -2.04785
     37       0.00000           0.083090            2.26099
     38       0.00000           0.172698            4.69936
     39       0.00000           0.172698            4.69936
     40       0.00000           0.280614            7.63590
     41       0.00000           0.280614            7.63590
     42       0.00000           0.280614            7.63590
     43       0.00000           0.697037           18.96733
     44       0.00000           0.755803           20.56645
     45       0.00000           0.755803           20.56645
     46       0.00000           0.755803           20.56645
     47       0.00000           0.815860           22.20067
     48       0.00000           0.815860           22.20067

  What follows are estimated values for band gap, HOMO, LUMO, etc.
  | They are estimated on a discrete k-point grid and not necessarily exact.
  | For converged numbers, create a DOS and/or band structure plot on a denser k-grid.

  Highest occupied state (VBM) at     -6.12185749 eV (relative to internal zero)
  | Occupation number:      2.00000000
  | K-point:       1 at    0.000000    0.000000    0.000000 (in units of recip. lattice)

  Lowest unoccupied state (CBM) at    -5.48592324 eV (relative to internal zero)
  | Occupation number:      0.00000001
  | K-point:       1 at    0.000000    0.000000    0.000000 (in units of recip. lattice)

  ESTIMATED overall HOMO-LUMO gap:      0.63593425 eV between HOMO at k-point 1 and LUMO at k-point 1
  | This appears to be a direct band gap.
  The gap value is above 0.2 eV. Unless you are using a very sparse k-point grid,
  this system is most likely an insulator or a semiconductor.
  Calculating total energy contributions from superposition of free atom densities.

  Total energy components:
  | Sum of eigenvalues            :       -2467.81413081 Ha      -67152.63918812 eV
  | XC energy correction          :        -156.80821690 Ha       -4266.96868281 eV
  | XC potential correction       :         205.67460843 Ha        5596.69085179 eV
  | Free-atom electrostatic energy:       -1806.99329267 Ha      -49170.78927589 eV
  | Hartree energy correction     :           0.00000000 Ha           0.00000000 eV
  | Entropy correction            :          -0.00000000 Ha          -0.00000000 eV
  | ---------------------------
  | Total energy                  :       -4225.94103196 Ha     -114993.70629503 eV
  | Total energy, T -> 0          :       -4225.94103196 Ha     -114993.70629503 eV  <-- do not rely on this value for anything but (periodic) metals
  | Electronic free energy        :       -4225.94103196 Ha     -114993.70629503 eV

  Derived energy quantities:
  | Kinetic energy                :        4306.51155827 Ha      117186.14186584 eV
  | Electrostatic energy          :       -8375.64437333 Ha     -227912.87947806 eV
  | Energy correction for multipole
  | error in Hartree potential    :           0.00000000 Ha           0.00000000 eV
  | Sum of eigenvalues per atom                           :      -33576.31959406 eV
  | Total energy (T->0) per atom                          :      -57496.85314751 eV  <-- do not rely on this value for anything but (periodic) metals
  | Electronic free energy per atom                       :      -57496.85314751 eV
  Initialize hartree_potential_storage
  Max. number of atoms included in rho_multipole:            2

  End scf initialization - timings             :  max(cpu_time)    wall_clock(cpu1)
  | Time for scf. initialization                :        1.334 s           1.420 s
  | Boundary condition initialization           :        0.041 s           0.041 s
  | Integration                                 :        0.844 s           0.846 s
  | Solution of K.-S. eqns.                     :        0.133 s           0.202 s
  | Grid partitioning                           :        0.064 s           0.078 s
  | Preloading free-atom quantities on grid     :        0.269 s           0.270 s
  | Free-atom superposition energy              :        0.020 s           0.020 s
  | Total energy evaluation                     :        0.001 s           0.001 s

  Partial memory accounting:
  | Current value for overall tracked memory usage:
  |   Minimum:        5.486 MB (on task  0)
  |   Maximum:        5.536 MB (on task  1)
  |   Average:        5.506 MB
  | Peak value for overall tracked memory usage:
  |   Minimum:       15.262 MB (on task  2 after allocating wave)
  |   Maximum:       15.790 MB (on task  8 after allocating wave)
  |   Average:       15.503 MB
  | Largest tracked array allocation so far:
  |   Minimum:        6.684 MB (hamiltonian_shell on task  2)
  |   Maximum:        7.178 MB (hamiltonian_shell on task  8)
  |   Average:        6.915 MB
  Note:  These values currently only include a subset of arrays which are explicitly tracked.
  The "true" memory usage will be greater.
------------------------------------------------------------
  Available memory after initialize_scf [GB]:    155.21
  Available memory after allocating mixing [GB]:    155.21
  Evaluating new KS density using the density matrix
  Evaluating density matrix
  Time summed over all CPUs for getting density from density matrix: real work        7.622 s, elapsed        7.767 s
  Integration grid: deviation in total charge (<rho> - N_e) =   1.324452E-11

  Time for density update prior                :  max(cpu_time)    wall_clock(cpu1)
  | self-consistency iterative process          :        0.802 s           0.802 s
  Available memory before start of SCF loop [GB]:    155.06

------------------------------------------------------------
          Begin self-consistency iteration #    1

  Date     :  20240301, Time     :  231400.183
------------------------------------------------------------
  Pulay mixing of updated and previous charge densities.
  Available memory per node after mixing [GB]:    155.06
  Renormalizing the density to the exact electron count on the 3D integration grid.
  | Formal number of electrons (from input files) :      64.0000000000
  | Integrated number of electrons on 3D grid     :      63.9997804114
  | Charge integration error                      :      -0.0002195886
  | Normalization factor for density and gradient :       1.0000034311

  Evaluating partitioned Hartree potential by multipole expansion.
  | Original multipole sum: apparent total charge =  -0.319048E-13
  | Sum of charges compensated after spline to logarithmic grids =   0.757859E-08
  | Analytical far-field extrapolation by fixed multipoles:
  | Hartree multipole sum: apparent total charge =  -0.319002E-13
  Summing up the Hartree potential.
  Time summed over all CPUs for potential: real work        0.105 s, elapsed        0.109 s
  | RMS charge density error from multipole expansion :   0.195307E-03
  | Average real-space part of the electrostatic potential :      0.01041526 eV

  Integrating Hamiltonian matrix: batch-based integration.
  Time summed over all CPUs for integration: real work        4.741 s, elapsed        4.843 s

  Updating Kohn-Sham eigenvalues and eigenvectors using ELSI and the (modified) LAPACK eigensolver.
  Starting LAPACK eigensolver
  Finished Cholesky decomposition
  | Time :     0.001 s
  Finished transformation to standard eigenproblem
  | Time :     0.000 s
  Finished solving standard eigenproblem
  | Time :     0.001 s
  Finished back-transformation of eigenvectors
  | Time :     0.000 s

  Obtaining occupation numbers and electronic chemical potential using ELSI.
  | Note that, for insulating systems, the printed 'chemical potential' value is not uniquely defined.
  | It can be anywhere in the energy gap, as long as it correctly separates occupied and unoccupied states.
  | In systems with a gap, the physically relevant chemical potential is the VBM or HOMO.

  | Chemical potential (Fermi level):    -5.51478940 eV
  Writing Kohn-Sham eigenvalues.
  K-point:       1 at    0.000000    0.000000    0.000000 (in units of recip. lattice)

  State    Occupation    Eigenvalue [Ha]    Eigenvalue [eV]
      1       2.00000        -436.289396       -11872.03850
      2       2.00000        -380.162593       -10344.75050
      3       2.00000         -54.726257        -1489.17723
      4       2.00000         -47.991340        -1305.91080
      5       2.00000         -47.991340        -1305.91080
      6       2.00000         -47.991340        -1305.91080
      7       2.00000         -46.441558        -1263.73910
      8       2.00000         -40.432104        -1100.21352
      9       2.00000         -40.432104        -1100.21352
     10       2.00000         -40.432104        -1100.21352
     11       2.00000          -7.002340         -190.54336
     12       2.00000          -5.445131         -148.16956
     13       2.00000          -4.927260         -134.07756
     14       2.00000          -4.927260         -134.07756
     15       2.00000          -4.927260         -134.07756
     16       2.00000          -3.640545          -99.06428
     17       2.00000          -3.640545          -99.06428
     18       2.00000          -3.640545          -99.06428
     19       2.00000          -1.519209          -41.33979
     20       2.00000          -1.519209          -41.33979
     21       2.00000          -1.519209          -41.33979
     22       2.00000          -1.518654          -41.32469
     23       2.00000          -1.518654          -41.32469
     24       2.00000          -0.727218          -19.78861
     25       2.00000          -0.727218          -19.78861
     26       2.00000          -0.727218          -19.78861
     27       2.00000          -0.723480          -19.68690
     28       2.00000          -0.723480          -19.68690
     29       2.00000          -0.689643          -18.76615
     30       2.00000          -0.223981           -6.09484
     31       2.00000          -0.223981           -6.09484
     32       2.00000          -0.223981           -6.09484
     33       0.00000          -0.201188           -5.47460
     34       0.00000          -0.075188           -2.04597
     35       0.00000          -0.075188           -2.04597
     36       0.00000          -0.075188           -2.04597
     37       0.00000           0.082966            2.25763
     38       0.00000           0.173027            4.70830
     39       0.00000           0.173027            4.70830
     40       0.00000           0.280714            7.63862
     41       0.00000           0.280714            7.63862
     42       0.00000           0.280714            7.63862
     43       0.00000           0.697426           18.97794
     44       0.00000           0.756426           20.58341
     45       0.00000           0.756426           20.58341
     46       0.00000           0.756426           20.58341
     47       0.00000           0.816398           22.21533
     48       0.00000           0.816398           22.21533

  What follows are estimated values for band gap, HOMO, LUMO, etc.
  | They are estimated on a discrete k-point grid and not necessarily exact.
  | For converged numbers, create a DOS and/or band structure plot on a denser k-grid.

  Highest occupied state (VBM) at     -6.09483747 eV (relative to internal zero)
  | Occupation number:      2.00000000
  | K-point:       1 at    0.000000    0.000000    0.000000 (in units of recip. lattice)

  Lowest unoccupied state (CBM) at    -5.47460429 eV (relative to internal zero)
  | Occupation number:      0.00000001
  | K-point:       1 at    0.000000    0.000000    0.000000 (in units of recip. lattice)

  ESTIMATED overall HOMO-LUMO gap:      0.62023318 eV between HOMO at k-point 1 and LUMO at k-point 1
  | This appears to be a direct band gap.
  The gap value is above 0.2 eV. Unless you are using a very sparse k-point grid,
  this system is most likely an insulator or a semiconductor.

  Total energy components:
  | Sum of eigenvalues            :       -2467.84486219 Ha      -67153.47543132 eV
  | XC energy correction          :        -156.80520417 Ha       -4266.88670234 eV
  | XC potential correction       :         205.67060840 Ha        5596.58200562 eV
  | Free-atom electrostatic energy:       -1806.99329267 Ha      -49170.78927589 eV
  | Hartree energy correction     :           0.03264189 Ha           0.88823105 eV
  | Entropy correction            :          -0.00000000 Ha          -0.00000000 eV
  | ---------------------------
  | Total energy                  :       -4225.94010874 Ha     -114993.68117289 eV
  | Total energy, T -> 0          :       -4225.94010874 Ha     -114993.68117289 eV  <-- do not rely on this value for anything but (periodic) metals
  | Electronic free energy        :       -4225.94010874 Ha     -114993.68117289 eV

  Derived energy quantities:
  | Kinetic energy                :        4306.47573043 Ha      117185.16694063 eV
  | Electrostatic energy          :       -8375.61063500 Ha     -227911.96141117 eV
  | Energy correction for multipole
  | error in Hartree potential    :          -0.00037212 Ha          -0.01012592 eV
  | Sum of eigenvalues per atom                           :      -33576.73771566 eV
  | Total energy (T->0) per atom                          :      -57496.84058644 eV  <-- do not rely on this value for anything but (periodic) metals
  | Electronic free energy per atom                       :      -57496.84058644 eV
  Evaluating new KS density using the density matrix
  Evaluating density matrix
  Time summed over all CPUs for getting density from density matrix: real work        7.601 s, elapsed        7.767 s
  Integration grid: deviation in total charge (<rho> - N_e) =   1.324452E-11

  Self-consistency convergence accuracy:
  | Change of charge density      :  0.1004E+00
  | Change of unmixed KS density  :  0.1319E+03
  | Change of sum of eigenvalues  : -0.8362E+00 eV
  | Change of total energy        :  0.2512E-01 eV


------------------------------------------------------------
  End self-consistency iteration #     1       :  max(cpu_time)    wall_clock(cpu1)
  | Time for this iteration                     :        1.606 s           1.605 s
  | Charge density update                       :        0.800 s           0.800 s
  | Density mixing & preconditioning            :        0.101 s           0.101 s
  | Hartree multipole update                    :        0.001 s           0.001 s
  | Hartree multipole summation                 :        0.112 s           0.112 s
  | Integration                                 :        0.489 s           0.489 s
  | Solution of K.-S. eqns.                     :        0.101 s           0.101 s
  | Total energy evaluation                     :        0.001 s           0.000 s

  Partial memory accounting:
  | Current value for overall tracked memory usage:
  |   Minimum:        8.065 MB (on task  0)
  |   Maximum:        8.171 MB (on task  4)
  |   Average:        8.107 MB
  | Peak value for overall tracked memory usage:
  |   Minimum:       19.342 MB (on task  2 after allocating gradient_basis_wave)
  |   Maximum:       19.973 MB (on task  8 after allocating gradient_basis_wave)
  |   Average:       19.642 MB
  | Largest tracked array allocation so far:
  |   Minimum:        6.684 MB (hamiltonian_shell on task  2)
  |   Maximum:        7.178 MB (hamiltonian_shell on task  8)
  |   Average:        6.915 MB
  Note:  These values currently only include a subset of arrays which are explicitly tracked.
  The "true" memory usage will be greater.
------------------------------------------------------------

------------------------------------------------------------
          Begin self-consistency iteration #    2

  Date     :  20240301, Time     :  231401.789
------------------------------------------------------------
  Pulay mixing of updated and previous charge densities.
  Available memory per node after mixing [GB]:    155.03
  Renormalizing the density to the exact electron count on the 3D integration grid.
  | Formal number of electrons (from input files) :      64.0000000000
  | Integrated number of electrons on 3D grid     :      63.9974042781
  | Charge integration error                      :      -0.0025957219
  | Normalization factor for density and gradient :       1.0000405598

  Evaluating partitioned Hartree potential by multipole expansion.
  | Original multipole sum: apparent total charge =  -0.272912E-13
  | Sum of charges compensated after spline to logarithmic grids =   0.634224E-07
  | Analytical far-field extrapolation by fixed multipoles:
  | Hartree multipole sum: apparent total charge =  -0.273035E-13
  Summing up the Hartree potential.
  Time summed over all CPUs for potential: real work        0.126 s, elapsed        0.131 s
  | RMS charge density error from multipole expansion :   0.243007E-02
  | Average real-space part of the electrostatic potential :      0.12823748 eV

  Integrating Hamiltonian matrix: batch-based integration.
  Time summed over all CPUs for integration: real work        4.743 s, elapsed        4.833 s

  Updating Kohn-Sham eigenvalues and eigenvectors using ELSI and the (modified) LAPACK eigensolver.
  Starting LAPACK eigensolver
  Finished Cholesky decomposition
  | Time :     0.000 s
  Finished transformation to standard eigenproblem
  | Time :     0.001 s
  Finished solving standard eigenproblem
  | Time :     0.000 s
  Finished back-transformation of eigenvectors
  | Time :     0.000 s

  Obtaining occupation numbers and electronic chemical potential using ELSI.
  | Note that, for insulating systems, the printed 'chemical potential' value is not uniquely defined.
  | It can be anywhere in the energy gap, as long as it correctly separates occupied and unoccupied states.
  | In systems with a gap, the physically relevant chemical potential is the VBM or HOMO.

  | Chemical potential (Fermi level):    -5.37712992 eV
  What follows are estimated values for band gap, HOMO, LUMO, etc.
  | They are estimated on a discrete k-point grid and not necessarily exact.
  | For converged numbers, create a DOS and/or band structure plot on a denser k-grid.

  Highest occupied state (VBM) at     -5.78665214 eV (relative to internal zero)
  | Occupation number:      2.00000000
  | K-point:       1 at    0.000000    0.000000    0.000000 (in units of recip. lattice)

  Lowest unoccupied state (CBM) at    -5.33694919 eV (relative to internal zero)
  | Occupation number:      0.00000001
  | K-point:       1 at    0.000000    0.000000    0.000000 (in units of recip. lattice)

  ESTIMATED overall HOMO-LUMO gap:      0.44970295 eV between HOMO at k-point 1 and LUMO at k-point 1
  | This appears to be a direct band gap.
  The gap value is above 0.2 eV. Unless you are using a very sparse k-point grid,
  this system is most likely an insulator or a semiconductor.

  Checking to see if s.c.f. parameters should be adjusted.
  The system likely has a gap. Increased the default Pulay mixing parameter (charge_mix_param). Value:   0.200000 .
  Kept the default occupation width. Value:   0.010000 eV.

  Total energy components:
  | Sum of eigenvalues            :       -2468.16570417 Ha      -67162.20598575 eV
  | XC energy correction          :        -156.77566383 Ha       -4266.08286882 eV
  | XC potential correction       :         205.63100135 Ha        5595.50424292 eV
  | Free-atom electrostatic energy:       -1806.99329267 Ha      -49170.78927589 eV
  | Hartree energy correction     :           0.36902292 Ha          10.04162455 eV
  | Entropy correction            :          -0.00000000 Ha          -0.00000000 eV
  | ---------------------------
  | Total energy                  :       -4225.93463640 Ha     -114993.53226299 eV
  | Total energy, T -> 0          :       -4225.93463640 Ha     -114993.53226299 eV  <-- do not rely on this value for anything but (periodic) metals
  | Electronic free energy        :       -4225.93463640 Ha     -114993.53226299 eV

  Derived energy quantities:
  | Kinetic energy                :        4306.08917016 Ha      117174.64810041 eV
  | Electrostatic energy          :       -8375.24814272 Ha     -227902.09749458 eV
  | Energy correction for multipole
  | error in Hartree potential    :          -0.00463707 Ha          -0.12618118 eV
  | Sum of eigenvalues per atom                           :      -33581.10299287 eV
  | Total energy (T->0) per atom                          :      -57496.76613150 eV  <-- do not rely on this value for anything but (periodic) metals
  | Electronic free energy per atom                       :      -57496.76613150 eV
  Evaluating new KS density using the density matrix
  Evaluating density matrix
  Time summed over all CPUs for getting density from density matrix: real work        7.660 s, elapsed        7.802 s
  Integration grid: deviation in total charge (<rho> - N_e) =   1.327294E-11

  Self-consistency convergence accuracy:
  | Change of charge density      :  0.9367E-01
  | Change of unmixed KS density  :  0.4302E-02
  | Change of sum of eigenvalues  : -0.8731E+01 eV
  | Change of total energy        :  0.1489E+00 eV


------------------------------------------------------------
  End self-consistency iteration #     2       :  max(cpu_time)    wall_clock(cpu1)
  | Time for this iteration                     :        1.631 s           1.630 s
  | Charge density update                       :        0.805 s           0.804 s
  | Density mixing & preconditioning            :        0.101 s           0.101 s
  | Hartree multipole update                    :        0.001 s           0.001 s
  | Hartree multipole summation                 :        0.135 s           0.135 s
  | Integration                                 :        0.486 s           0.485 s
  | Solution of K.-S. eqns.                     :        0.103 s           0.103 s
  | Total energy evaluation                     :        0.001 s           0.001 s

  Partial memory accounting:
  | Current value for overall tracked memory usage:
  |   Minimum:        8.066 MB (on task  0)
  |   Maximum:        8.172 MB (on task  4)
  |   Average:        8.108 MB
  | Peak value for overall tracked memory usage:
  |   Minimum:       19.343 MB (on task  2 after allocating gradient_basis_wave)
  |   Maximum:       19.974 MB (on task  8 after allocating gradient_basis_wave)
  |   Average:       19.642 MB
  | Largest tracked array allocation so far:
  |   Minimum:        6.684 MB (hamiltonian_shell on task  2)
  |   Maximum:        7.178 MB (hamiltonian_shell on task  8)
  |   Average:        6.915 MB
  Note:  These values currently only include a subset of arrays which are explicitly tracked.
  The "true" memory usage will be greater.
------------------------------------------------------------

------------------------------------------------------------
          Begin self-consistency iteration #    3

  Date     :  20240301, Time     :  231403.419
------------------------------------------------------------
  Pulay mixing of updated and previous charge densities.
  Available memory per node after mixing [GB]:    155.02
  Renormalizing the density to the exact electron count on the 3D integration grid.
  | Formal number of electrons (from input files) :      64.0000000000
  | Integrated number of electrons on 3D grid     :      63.9971832374
  | Charge integration error                      :      -0.0028167626
  | Normalization factor for density and gradient :       1.0000440139

  Evaluating partitioned Hartree potential by multipole expansion.
  | Original multipole sum: apparent total charge =  -0.610024E-14
  | Sum of charges compensated after spline to logarithmic grids =   0.921129E-07
  | Analytical far-field extrapolation by fixed multipoles:
  | Hartree multipole sum: apparent total charge =  -0.624783E-14
  Summing up the Hartree potential.
  Time summed over all CPUs for potential: real work        0.130 s, elapsed        0.133 s
  | RMS charge density error from multipole expansion :   0.394875E-02
  | Average real-space part of the electrostatic potential :      0.18766173 eV

  Integrating Hamiltonian matrix: batch-based integration.
  Time summed over all CPUs for integration: real work        4.693 s, elapsed        4.826 s

  Updating Kohn-Sham eigenvalues and eigenvectors using ELSI and the (modified) LAPACK eigensolver.
  Starting LAPACK eigensolver
  Finished Cholesky decomposition
  | Time :     0.000 s
  Finished transformation to standard eigenproblem
  | Time :     0.000 s
  Finished solving standard eigenproblem
  | Time :     0.001 s
  Finished back-transformation of eigenvectors
  | Time :     0.000 s

  Obtaining occupation numbers and electronic chemical potential using ELSI.
  | Note that, for insulating systems, the printed 'chemical potential' value is not uniquely defined.
  | It can be anywhere in the energy gap, as long as it correctly separates occupied and unoccupied states.
  | In systems with a gap, the physically relevant chemical potential is the VBM or HOMO.

  | Chemical potential (Fermi level):    -5.29745423 eV
  What follows are estimated values for band gap, HOMO, LUMO, etc.
  | They are estimated on a discrete k-point grid and not necessarily exact.
  | For converged numbers, create a DOS and/or band structure plot on a denser k-grid.

  Highest occupied state (VBM) at     -5.65865299 eV (relative to internal zero)
  | Occupation number:      2.00000000
  | K-point:       1 at    0.000000    0.000000    0.000000 (in units of recip. lattice)

  Lowest unoccupied state (CBM) at    -5.25726513 eV (relative to internal zero)
  | Occupation number:      0.00000001
  | K-point:       1 at    0.000000    0.000000    0.000000 (in units of recip. lattice)

  ESTIMATED overall HOMO-LUMO gap:      0.40138787 eV between HOMO at k-point 1 and LUMO at k-point 1
  | This appears to be a direct band gap.
  The gap value is above 0.2 eV. Unless you are using a very sparse k-point grid,
  this system is most likely an insulator or a semiconductor.

  Total energy components:
  | Sum of eigenvalues            :       -2468.07029756 Ha      -67159.60983986 eV
  | XC energy correction          :        -156.78172066 Ha       -4266.24768339 eV
  | XC potential correction       :         205.63788672 Ha        5595.69160343 eV
  | Free-atom electrostatic energy:       -1806.99329267 Ha      -49170.78927589 eV
  | Hartree energy correction     :           0.27310804 Ha           7.43164785 eV
  | Entropy correction            :          -0.00000000 Ha          -0.00000000 eV
  | ---------------------------
  | Total energy                  :       -4225.93431613 Ha     -114993.52354786 eV
  | Total energy, T -> 0          :       -4225.93431613 Ha     -114993.52354786 eV  <-- do not rely on this value for anything but (periodic) metals
  | Electronic free energy        :       -4225.93431613 Ha     -114993.52354786 eV

  Derived energy quantities:
  | Kinetic energy                :        4306.13550595 Ha      117175.90896162 eV
  | Electrostatic energy          :       -8375.28810142 Ha     -227903.18482608 eV
  | Energy correction for multipole
  | error in Hartree potential    :          -0.00730598 Ha          -0.19880572 eV
  | Sum of eigenvalues per atom                           :      -33579.80491993 eV
  | Total energy (T->0) per atom                          :      -57496.76177393 eV  <-- do not rely on this value for anything but (periodic) metals
  | Electronic free energy per atom                       :      -57496.76177393 eV
  Evaluating new KS density using the density matrix
  Evaluating density matrix
  Time summed over all CPUs for getting density from density matrix: real work        7.588 s, elapsed        7.734 s
  Integration grid: deviation in total charge (<rho> - N_e) =   1.318767E-11

  Self-consistency convergence accuracy:
  | Change of charge density      :  0.4082E-01
  | Change of unmixed KS density  :  0.4584E-01
  | Change of sum of eigenvalues  :  0.2596E+01 eV
  | Change of total energy        :  0.8715E-02 eV


------------------------------------------------------------
  End self-consistency iteration #     3       :  max(cpu_time)    wall_clock(cpu1)
  | Time for this iteration                     :        1.628 s           1.628 s
  | Charge density update                       :        0.797 s           0.797 s
  | Density mixing & preconditioning            :        0.102 s           0.103 s
  | Hartree multipole update                    :        0.001 s           0.001 s
  | Hartree multipole summation                 :        0.137 s           0.137 s
  | Integration                                 :        0.488 s           0.487 s
  | Solution of K.-S. eqns.                     :        0.102 s           0.102 s
  | Total energy evaluation                     :        0.001 s           0.001 s

  Partial memory accounting:
  | Current value for overall tracked memory usage:
  |   Minimum:        8.066 MB (on task  0)
  |   Maximum:        8.172 MB (on task  4)
[...]
  | Computing matrix elements for SOC operator            :          3.390               3.389
  | Constructing second-variational Hamiltonian           :          0.057               0.055
  | Diagonalizing second-variational Hamiltonian          :          0.262               0.263
  | Syncing data and calculating occupations              :          0.028               0.011
  | Writing out data, calculating band gaps, etc.         :          0.001               0.001
  | Total SOC time                                        :          3.723               3.722

  Partial memory accounting:
  | Current value for overall tracked memory usage:
  |   Minimum:        8.805 MB (on task  0)
  |   Maximum:        8.911 MB (on task  4)
  |   Average:        8.847 MB
  | Peak value for overall tracked memory usage:
  |   Minimum:       29.940 MB (on task  2 after allocating d_wave)
  |   Maximum:       30.957 MB (on task  8 after allocating d_wave)
  |   Average:       30.421 MB
  | Largest tracked array allocation so far:
  |   Minimum:        6.684 MB (hamiltonian_shell on task  2)
  |   Maximum:        7.178 MB (hamiltonian_shell on task  8)
  |   Average:        6.915 MB
  Note:  These values currently only include a subset of arrays which are explicitly tracked.
  The "true" memory usage will be greater.
 ------------------------------------------------------------

  -------------------------------------------------------------------
  Writing the requested band structure output (LAPACK version):
  -------------------------------------------------------------------


  Integrating Hamiltonian matrix: batch-based integration.
  Time summed over all CPUs for integration: real work        4.704 s, elapsed        4.810 s
  Integrating SOC matrix: batch-based integration p2 version.
  Allocating        0.104 MB for dist_tab
  Allocating        0.104 MB for dist_tab_sq
  Allocating        0.311 MB for dir_tab
  Allocating        0.012 MB for i_basis_fns
  Allocating        0.402 MB for i_basis_fns_inv
  Allocating        0.012 MB for i_atom_fns
  Allocating        2.339 MB for gradient_basis_wave
  Allocating        0.005 MB for ylm_tab
  Allocating        0.002 MB for radial_wave
  Allocating        0.002 MB for radial_wave_deriv
  Allocating        0.010 MB for i_basis
  Allocating        7.090 MB for soc_shell
  Allocating        0.012 MB for cartesians
  Allocating        0.014 MB for sum_gradient
  Allocating        0.028 MB for sum_hessian
  Allocating        0.001 MB for potential_shell

  Treating all    2 k-points in band plot segment #   1:

  Scalar-relativistic "band gap" along reciprocal space direction number:    1
  | Lowest unoccupied state:      -5.28227075 eV
  | Highest occupied state :      -5.69234303 eV
  | Energy difference      :       0.41007227 eV

  Spin-orbit-coupled "band gap" along reciprocal space direction number:    1
  | Lowest unoccupied state:      -5.28227075 eV
  | Highest occupied state :      -5.57699962 eV
  | Energy difference      :       0.29472887 eV


  Treating all    2 k-points in band plot segment #   2:

  Scalar-relativistic "band gap" along reciprocal space direction number:    2
  | Lowest unoccupied state:      -5.28227075 eV
  | Highest occupied state :      -5.69234303 eV
  | Energy difference      :       0.41007227 eV

  Spin-orbit-coupled "band gap" along reciprocal space direction number:    2
  | Lowest unoccupied state:      -5.28227075 eV
  | Highest occupied state :      -5.57699962 eV
  | Energy difference      :       0.29472887 eV


  Treating all    2 k-points in band plot segment #   3:

  Scalar-relativistic "band gap" along reciprocal space direction number:    3
  | Lowest unoccupied state:      -5.28227075 eV
  | Highest occupied state :      -5.69234303 eV
  | Energy difference      :       0.41007227 eV

  Spin-orbit-coupled "band gap" along reciprocal space direction number:    3
  | Lowest unoccupied state:      -5.28227075 eV
  | Highest occupied state :      -5.57699962 eV
  | Energy difference      :       0.29472887 eV


  Treating all    2 k-points in band plot segment #   4:

  Scalar-relativistic "band gap" along reciprocal space direction number:    4
  | Lowest unoccupied state:      -5.28227075 eV
  | Highest occupied state :      -5.69234303 eV
  | Energy difference      :       0.41007227 eV

  Spin-orbit-coupled "band gap" along reciprocal space direction number:    4
  | Lowest unoccupied state:      -5.28227075 eV
  | Highest occupied state :      -5.57699962 eV
  | Energy difference      :       0.29472887 eV


  Treating all    2 k-points in band plot segment #   5:

  Scalar-relativistic "band gap" along reciprocal space direction number:    5
  | Lowest unoccupied state:      -5.28227075 eV
  | Highest occupied state :      -5.69234303 eV
  | Energy difference      :       0.41007227 eV

  Spin-orbit-coupled "band gap" along reciprocal space direction number:    5
  | Lowest unoccupied state:      -5.28227075 eV
  | Highest occupied state :      -5.57699962 eV
  | Energy difference      :       0.29472887 eV


  Treating all    2 k-points in band plot segment #   6:

  Scalar-relativistic "band gap" along reciprocal space direction number:    6
  | Lowest unoccupied state:      -5.28227075 eV
  | Highest occupied state :      -5.69234303 eV
  | Energy difference      :       0.41007227 eV

  Spin-orbit-coupled "band gap" along reciprocal space direction number:    6
  | Lowest unoccupied state:      -5.28227075 eV
  | Highest occupied state :      -5.57699962 eV
  | Energy difference      :       0.29472887 eV


  Treating all    2 k-points in band plot segment #   7:

  Scalar-relativistic "band gap" along reciprocal space direction number:    7
  | Lowest unoccupied state:      -5.28227075 eV
  | Highest occupied state :      -5.69234303 eV
  | Energy difference      :       0.41007227 eV

  Spin-orbit-coupled "band gap" along reciprocal space direction number:    7
  | Lowest unoccupied state:      -5.28227075 eV
  | Highest occupied state :      -5.57699962 eV
  | Energy difference      :       0.29472887 eV


  Treating all    2 k-points in band plot segment #   8:

  Scalar-relativistic "band gap" along reciprocal space direction number:    8
  | Lowest unoccupied state:      -5.28227075 eV
  | Highest occupied state :      -5.69234303 eV
  | Energy difference      :       0.41007227 eV

  Spin-orbit-coupled "band gap" along reciprocal space direction number:    8
  | Lowest unoccupied state:      -5.28227075 eV
  | Highest occupied state :      -5.57699962 eV
  | Energy difference      :       0.29472887 eV


  Treating all    2 k-points in band plot segment #   9:

  Scalar-relativistic "band gap" along reciprocal space direction number:    9
  | Lowest unoccupied state:      -5.28227075 eV
  | Highest occupied state :      -5.69234303 eV
  | Energy difference      :       0.41007227 eV

  Spin-orbit-coupled "band gap" along reciprocal space direction number:    9
  | Lowest unoccupied state:      -5.28227075 eV
  | Highest occupied state :      -5.57699962 eV
  | Energy difference      :       0.29472887 eV


  Treating all    2 k-points in band plot segment #  10:

  Scalar-relativistic "band gap" along reciprocal space direction number:   10
  | Lowest unoccupied state:      -5.28227075 eV
  | Highest occupied state :      -5.69234303 eV
  | Energy difference      :       0.41007227 eV

  Spin-orbit-coupled "band gap" along reciprocal space direction number:   10
  | Lowest unoccupied state:      -5.28227075 eV
  | Highest occupied state :      -5.57699962 eV
  | Energy difference      :       0.29472887 eV


  Treating all    2 k-points in band plot segment #  11:

  Scalar-relativistic "band gap" along reciprocal space direction number:   11
  | Lowest unoccupied state:      -5.28227075 eV
  | Highest occupied state :      -5.69234303 eV
  | Energy difference      :       0.41007227 eV

  Spin-orbit-coupled "band gap" along reciprocal space direction number:   11
  | Lowest unoccupied state:      -5.28227075 eV
  | Highest occupied state :      -5.57699962 eV
  | Energy difference      :       0.29472887 eV


  Treating all    2 k-points in band plot segment #  12:

  Scalar-relativistic "band gap" along reciprocal space direction number:   12
  | Lowest unoccupied state:      -5.28227075 eV
  | Highest occupied state :      -5.69234303 eV
  | Energy difference      :       0.41007227 eV

  Spin-orbit-coupled "band gap" along reciprocal space direction number:   12
  | Lowest unoccupied state:      -5.28227075 eV
  | Highest occupied state :      -5.57699962 eV
  | Energy difference      :       0.29472887 eV


  Treating all    2 k-points in band plot segment #  13:

  Scalar-relativistic "band gap" along reciprocal space direction number:   13
  | Lowest unoccupied state:      -5.28227075 eV
  | Highest occupied state :      -5.69234303 eV
  | Energy difference      :       0.41007227 eV

  Spin-orbit-coupled "band gap" along reciprocal space direction number:   13
  | Lowest unoccupied state:      -5.28227075 eV
  | Highest occupied state :      -5.57699962 eV
  | Energy difference      :       0.29472887 eV


  Treating all    2 k-points in band plot segment #  14:

  Scalar-relativistic "band gap" along reciprocal space direction number:   14
  | Lowest unoccupied state:      -5.28227075 eV
  | Highest occupied state :      -5.69234303 eV
  | Energy difference      :       0.41007227 eV

  Spin-orbit-coupled "band gap" along reciprocal space direction number:   14
  | Lowest unoccupied state:      -5.28227075 eV
  | Highest occupied state :      -5.57699962 eV
  | Energy difference      :       0.29472887 eV


  Treating all    2 k-points in band plot segment #  15:

  Scalar-relativistic "band gap" along reciprocal space direction number:   15
  | Lowest unoccupied state:      -5.28227075 eV
  | Highest occupied state :      -5.69234303 eV
  | Energy difference      :       0.41007227 eV

  Spin-orbit-coupled "band gap" along reciprocal space direction number:   15
  | Lowest unoccupied state:      -5.28227075 eV
  | Highest occupied state :      -5.57699962 eV
  | Energy difference      :       0.29472887 eV


  Treating all    2 k-points in band plot segment #  16:

  Scalar-relativistic "band gap" along reciprocal space direction number:   16
  | Lowest unoccupied state:      -5.28227075 eV
  | Highest occupied state :      -5.69234303 eV
  | Energy difference      :       0.41007227 eV

  Spin-orbit-coupled "band gap" along reciprocal space direction number:   16
  | Lowest unoccupied state:      -5.28227075 eV
  | Highest occupied state :      -5.57699962 eV
  | Energy difference      :       0.29472887 eV


  Treating all    2 k-points in band plot segment #  17:

  Scalar-relativistic "band gap" along reciprocal space direction number:   17
  | Lowest unoccupied state:      -5.28227075 eV
  | Highest occupied state :      -5.69234303 eV
  | Energy difference      :       0.41007227 eV

  Spin-orbit-coupled "band gap" along reciprocal space direction number:   17
  | Lowest unoccupied state:      -5.28227075 eV
  | Highest occupied state :      -5.57699962 eV
  | Energy difference      :       0.29472887 eV


  Treating all    2 k-points in band plot segment #  18:

  Scalar-relativistic "band gap" along reciprocal space direction number:   18
  | Lowest unoccupied state:      -5.28227075 eV
  | Highest occupied state :      -5.69234303 eV
  | Energy difference      :       0.41007227 eV

  Spin-orbit-coupled "band gap" along reciprocal space direction number:   18
  | Lowest unoccupied state:      -5.28227075 eV
  | Highest occupied state :      -5.57699962 eV
  | Energy difference      :       0.29472887 eV


  Treating all    2 k-points in band plot segment #  19:

  Scalar-relativistic "band gap" along reciprocal space direction number:   19
  | Lowest unoccupied state:      -5.28227075 eV
  | Highest occupied state :      -5.69234303 eV
  | Energy difference      :       0.41007227 eV

  Spin-orbit-coupled "band gap" along reciprocal space direction number:   19
  | Lowest unoccupied state:      -5.28227075 eV
  | Highest occupied state :      -5.57699962 eV
  | Energy difference      :       0.29472887 eV

  Scalar-relativistic "band gap" of total set of bands:
  | Lowest unoccupied state:      -5.28227075 eV
  | Highest occupied state :      -5.69234303 eV
  | Energy difference      :       0.41007227 eV


  Spin-orbit-coupled "band gap" of total set of bands:
  | Lowest unoccupied state:      -5.28227075 eV
  | Highest occupied state :      -5.57699962 eV
  | Energy difference      :       0.29472887 eV



  Band Structure                                          :  max(cpu_time) wall_clock(cpu1)
  | Total Time                                            :          4.115            4.156
------------------------------------------------------------

------------------------------------------------------------------------------
  Final output of selected total energy values:

  The following output summarizes some interesting total energy values
  at the end of a run (AFTER all relaxation, molecular dynamics, etc.).

  | Total energy of the DFT / Hartree-Fock s.c.f. calculation      :        -114993.521851316 eV
  | Final zero-broadening corrected energy (caution - metals only) :        -114993.521851316 eV
  | Total energy after non-SC SOC correction (DO NOT USE)          :        -114993.594616621 eV
  | For reference only, the value of 1 Hartree used in FHI-aims is :             27.211384500 eV
  | For reference only, the overall average (free atom contribution
  | + realspace contribution) of the electrostatic potential after
  | s.c.f. convergence is                                          :            -14.649993681 eV

  Before relying on these values, please be sure to understand exactly which
  total energy value is referred to by a given number. Different objects may
  all carry the same name 'total energy'. Definitions:

  Total energy of the DFT / Hartree-Fock s.c.f. calculation:
  | Note that this energy does not include ANY quantities calculated after the
  | s.c.f. cycle, in particular not ANY RPA, MP2, etc. many-body perturbation terms.

  Final zero-broadening corrected energy:
  | For metallic systems only, a broadening of the occupation numbers at the Fermi
  | level can be extrapolated back to zero broadening by an electron-gas inspired
  | formula. For all systems that are not real metals, this value can be
  | meaningless and should be avoided.

------------------------------------------------------------------------------
  Methods described in the following list of references were used in this FHI-aims run.
  If you publish the results, please make sure to cite these reference if they apply.
  FHI-aims is an academic code, and for our developers (often, Ph.D. students
  and postdocs), scientific credit in the community is essential.
  Thank you for helping us!

  For any use of FHI-aims, please cite:

    Volker Blum, Ralf Gehrke, Felix Hanke, Paula Havu, Ville Havu,
    Xinguo Ren, Karsten Reuter, and Matthias Scheffler
    'Ab initio molecular simulations with numeric atom-centered orbitals'
    Computer Physics Communications 180, 2175-2196 (2009)
    http://doi.org/10.1016/j.cpc.2009.06.022


  The provided symmetry information was generated with SPGlib:

    Atsushi Togo, Yusuke Seto, Dimitar Pashov
    SPGlib 1.7.3 obtained from http://spglib.sourceforge.net
    Copyright (C) 2008 Atsushi Togo


  For second-variational spin-orbit coupling used in your run, please cite:

    William P. Huhn and Volker Blum,
    'One-hundred-three compound band-structure benchmark of post-self-consistent'
    'spin-orbit coupling treatments in density functional theory'
    Phys. Rev. Materials 1, 033803 (2017).


  The ELSI infrastructure was used in your run to solve the Kohn-Sham electronic structure.
  Please check out http://elsi-interchange.org to learn more.
  If scalability is important for your project, please acknowledge ELSI by citing:

    V. W-z. Yu, F. Corsetti, A. Garcia, W. P. Huhn, M. Jacquelin, W. Jia,
    B. Lange, L. Lin, J. Lu, W. Mi, A. Seifitokaldani, A. Vazquez-Mayagoitia,
    C. Yang, H. Yang, and V. Blum
    'ELSI: A unified software interface for Kohn-Sham electronic structure solvers'
    Computer Physics Communications 222, 267-285 (2018).
    http://doi.org/10.1016/j.cpc.2017.09.007


  For the real-space grid partitioning and parallelization used in this calculation, please cite:

    Ville Havu, Volker Blum, Paula Havu, and Matthias Scheffler,
    'Efficient O(N) integration for all-electron electronic structure calculation'
    'using numerically tabulated basis functions'
    Journal of Computational Physics 228, 8367-8379 (2009).
    http://doi.org/10.1016/j.jcp.2009.08.008

  Of course, there are many other important community references, e.g., those cited in the
  above references. Our list is limited to references that describe implementations in the
  FHI-aims code. The reason is purely practical (length of this list) - please credit others as well.

------------------------------------------------------------
          Leaving FHI-aims.
          Date     :  20240301, Time     :  231438.366

          Computational steps:
          | Number of self-consistency cycles          :           15
          | Number of SCF (re)initializations          :            1

          Detailed time accounting                     :  max(cpu_time)    wall_clock(cpu1)
          | Total time                                  :       40.847 s          41.570 s
          | Preparation time                            :        0.358 s           0.535 s
          | Boundary condition initalization            :        0.041 s           0.041 s
          | Grid partitioning                           :        0.064 s           0.078 s
          | Preloading free-atom quantities on grid     :        0.269 s           0.270 s
          | Free-atom superposition energy              :        0.020 s           0.020 s
          | Total time for integrations                 :        8.106 s           8.105 s
          | Total time for solution of K.-S. equations  :        1.666 s           1.733 s
          | Total time for density & force components   :       17.101 s          17.094 s
          | Total time for mixing & preconditioning     :        1.338 s           1.337 s
          | Total time for Hartree multipole update     :        0.019 s           0.019 s
          | Total time for Hartree multipole sum        :        2.535 s           2.533 s
          | Total time for total energy evaluation      :        0.010 s           0.012 s
          | Total time NSC force correction             :        1.305 s           1.305 s
          | Total time for scaled ZORA corrections      :        0.000 s           0.000 s
          | Total time for perturbative SOC             :        3.723 s           3.722 s
          | Total time for band structures, DOS         :        4.155 s           4.156 s

          Partial memory accounting:
          | Residual value for overall tracked memory usage across tasks:     0.000000 MB (should be 0.000000 MB)
          | Peak values for overall tracked memory usage:
          |   Minimum:       29.940 MB (on task  2 after allocating d_wave)
          |   Maximum:       30.957 MB (on task  8 after allocating d_wave)
          |   Average:       30.421 MB
          | Largest tracked array allocation:
          |   Minimum:        6.684 MB (hamiltonian_shell on task  2)
          |   Maximum:        7.178 MB (hamiltonian_shell on task  8)
          |   Average:        6.915 MB
          Note:  These values currently only include a subset of arrays which are explicitly tracked.
          The "true" memory usage will be greater.

          Have a nice day.
------------------------------------------------------------
