------------------------------------------------------------
          Invoking FHI-aims ...

          When using FHI-aims, please cite the following reference:

            Volker Blum, Ralf Gehrke, Felix Hanke, Paula Havu,
            Ville Havu, Xinguo Ren, Karsten Reuter, and Matthias Scheffler,
            'Ab Initio Molecular Simulations with Numeric Atom-Centered Orbitals',
            Computer Physics Communications 180, 2175-2196 (2009)

          In addition, many other developments in FHI-aims are likely important for
          your particular application. If so, please cite them. A partial list of references
          is written at the end of this file. Thank you for giving credit to the authors
          of these developments.

          For general information about FHI-aims please find us at

            https://fhi-aims.org

          Online tutorials can be found at

            https://fhi-aims-club.gitlab.io/tutorials/tutorials-overview/

          For any questions about FHI-aims, please visit our slack channel at

            https://fhi-aims.slack.com

          and our main development and support site at

            https://aims-git.rz-berlin.mpg.de .

          The latter site, in particular, has a wiki to collect information, as well
          as an issue tracker to log discussions, suggest improvements, and report issues
          or bugs. https://aims-git.rz-berlin.mpg.de is also the main development site
          of the project and all new and updated code versions can be obtained there.
          Please send an email to aims-coordinators@fhi-berlin.mpg.de and we will add
          you to these sites. They are for you and everyone is welcome there.

------------------------------------------------------------



  Date     :  20240229, Time     :  180419.642
  Time zero on CPU 1             :   0.106905000000000E+00  s.
  Internal wall clock time zero  :           478461859.642  s.

  FHI-aims created a unique identifier for this run for later identification
  aims_uuid : 9DC991CE-C4B2-4B57-A235-9503A4B7D5FE

  Build configuration of the current instance of FHI-aims
  -------------------------------------------------------
  FHI-aims version      : 230629
  Commit number         : 1bccf0f48
  CMake host system     : Linux-5.14.21-150400.24.66-default
  CMake version         : 3.26.4
  Fortran compiler      : /mpcdf/soft/SLE_15/packages/x86_64/intel_oneapi/2022.3/mpi/2021.7.1/bin/mpiifort (Intel) version 2021.7.0.20221019
  Fortran compiler flags: -O3 -ip -fp-model precise
  C compiler            : /mpcdf/soft/SLE_15/packages/x86_64/intel_oneapi/2022.3/mpi/2021.7.1/bin/mpiicc (Intel) version 2021.7.0.20221019
  C compiler flags      : -O3 -ip -fp-model precise -std=gnu99
  C++ compiler          : /mpcdf/soft/SLE_15/packages/x86_64/intel/2021.7.1/bin/icpc (Intel) version 2021.7.0.20221019
  C++ compiler flags    : -O3 -ip -fp-model precise
  CUDA compiler         : nvcc
  CUDA compiler flags   : -O3 -DAdd_ -arch=sm_70 -lcublas
  HIP compiler          :
  HIP compiler flags    :
  HIP GPU arch          :
  ELPA2 kernel          : AVX512
  Using MPI
  Using ScaLAPACK
  Using LibXC
  Using i-PI
  Using RLSY
  Linking against: /mpcdf/soft/SLE_15/packages/x86_64/intel_oneapi/2022.3/mkl/latest/lib/intel64/libmkl_scalapack_lp64.so
                   /mpcdf/soft/SLE_15/packages/x86_64/intel_oneapi/2022.3/mkl/latest/lib/intel64/libmkl_blacs_intelmpi_lp64.so
                   /mpcdf/soft/SLE_15/packages/x86_64/intel_oneapi/2022.3/mkl/latest/lib/intel64/libmkl_intel_lp64.so
                   /mpcdf/soft/SLE_15/packages/x86_64/intel_oneapi/2022.3/mkl/latest/lib/intel64/libmkl_sequential.so
                   /mpcdf/soft/SLE_15/packages/x86_64/intel_oneapi/2022.3/mkl/latest/lib/intel64/libmkl_core.so
                   /mpcdf/soft/SLE_15/packages/x86_64/cuda/11.4.2/lib64/libcublas.so
                   /mpcdf/soft/SLE_15/packages/x86_64/cuda/11.4.2/lib64/libcudart.so

  Using       40 parallel tasks.
  Task        0 on host talos022 reporting.
  Task        1 on host talos022 reporting.
  Task        2 on host talos022 reporting.
  Task        3 on host talos022 reporting.
  Task        4 on host talos022 reporting.
  Task        5 on host talos022 reporting.
  Task        6 on host talos022 reporting.
  Task        7 on host talos022 reporting.
  Task        8 on host talos022 reporting.
  Task        9 on host talos022 reporting.
  Task       10 on host talos022 reporting.
  Task       11 on host talos022 reporting.
  Task       12 on host talos022 reporting.
  Task       13 on host talos022 reporting.
  Task       14 on host talos022 reporting.
  Task       15 on host talos022 reporting.
  Task       16 on host talos022 reporting.
  Task       17 on host talos022 reporting.
  Task       18 on host talos022 reporting.
  Task       19 on host talos022 reporting.
  Task       20 on host talos022 reporting.
  Task       21 on host talos022 reporting.
  Task       22 on host talos022 reporting.
  Task       23 on host talos022 reporting.
  Task       24 on host talos022 reporting.
  Task       25 on host talos022 reporting.
  Task       26 on host talos022 reporting.
  Task       27 on host talos022 reporting.
  Task       28 on host talos022 reporting.
  Task       29 on host talos022 reporting.
  Task       30 on host talos022 reporting.
  Task       31 on host talos022 reporting.
  Task       32 on host talos022 reporting.
  Task       33 on host talos022 reporting.
  Task       34 on host talos022 reporting.
  Task       35 on host talos022 reporting.
  Task       36 on host talos022 reporting.
  Task       37 on host talos022 reporting.
  Task       38 on host talos022 reporting.
  Task       39 on host talos022 reporting.

  Obtaining array dimensions for all initial allocations:
  
  -----------------------------------------------------------------------
  Parsing control.in (first pass over file, find array dimensions only).
  The contents of control.in will be repeated verbatim below
  unless switched off by setting 'verbatim_writeout .false.' .
  in the first line of control.in .
  -----------------------------------------------------------------------
  
  #===============================================================================
  # Created using the Atomic Simulation Environment (ASE)
  
  # Thu Feb 29 18:03:58 2024
  
  #===============================================================================
  xc                                 pbe
  k_grid                             6 6 4
  sc_accuracy_rho                    1e-06
  sc_accuracy_forces                 0.0001
  relativistic                       atomic_zora scalar
  walltime                           40000.0
  sc_init_iter                       200
  output                             band   0.37500  0.50000  0.07500 0.0 0.0 0.0 2
  output                             band   0.35608  0.49773  0.07361 0.0 0.0 0.0 2
  output                             band   0.39392  0.50227  0.07639 0.0 0.0 0.0 2
  output                             band   0.37500  0.47698  0.06524 0.0 0.0 0.0 2
  output                             band   0.37500  0.52302  0.08476 0.0 0.0 0.0 2
  output                             band   0.37500  0.50000  0.03280 0.0 0.0 0.0 2
  output                             band   0.37500  0.50000  0.11720 0.0 0.0 0.0 2
  output                             band   0.35608  0.47471  0.06385 0.0 0.0 0.0 2
  output                             band   0.39392  0.52529  0.08615 0.0 0.0 0.0 2
  output                             band   0.39392  0.47926  0.06663 0.0 0.0 0.0 2
  output                             band   0.35608  0.52074  0.08337 0.0 0.0 0.0 2
  output                             band   0.35608  0.49773  0.03140 0.0 0.0 0.0 2
  output                             band   0.39392  0.50227  0.11860 0.0 0.0 0.0 2
  output                             band   0.39392  0.50227  0.03419 0.0 0.0 0.0 2
  output                             band   0.35608  0.49773  0.11581 0.0 0.0 0.0 2
  output                             band   0.37500  0.47698  0.02303 0.0 0.0 0.0 2
  output                             band   0.37500  0.52302  0.12697 0.0 0.0 0.0 2
  output                             band   0.37500  0.52302  0.04256 0.0 0.0 0.0 2
  output                             band   0.37500  0.47698  0.10744 0.0 0.0 0.0 2
  #===============================================================================
  
  ################################################################################
  #
  #  FHI-aims code project
  #  VB, Fritz-Haber Institut, 2009
  #
  #  Suggested "light" defaults for C atom (to be pasted into control.in file)
  #  Be sure to double-check any results obtained with these settings for post-processing,
  #  e.g., with the "tight" defaults and larger basis sets.
  #
  ################################################################################
    species        C
  #     global species definitions
      nucleus             6
      mass                12.0107
  #
      l_hartree           4
  #
      cut_pot             3.5  1.5  1.0
      basis_dep_cutoff    1e-4
  #
      radial_base         34 5.0
      radial_multiplier   1
      angular_grids specified
        division   0.3326   50
        division   0.5710  110
        division   0.7727  194
        division   0.8772  302
  #      division   0.9334  434
  #      division   0.9625  590
  #      division   0.9924  770
  #      division   1.0230  974
  #      division   1.4589 1202
  #     outer_grid  974
       outer_grid 302
  ################################################################################
  #
  #  Definition of "minimal" basis
  #
  ################################################################################
  #     valence basis states
      valence      2  s   2.
      valence      2  p   2.
  #     ion occupancy
      ion_occ      2  s   1.
      ion_occ      2  p   1.
  ################################################################################
  #
  #  Suggested additional basis functions. For production calculations,
  #  uncomment them one after another (the most important basis functions are
  #  listed first).
  #
  #  Constructed for dimers: 1.0 A, 1.25 A, 1.5 A, 2.0 A, 3.0 A
  #
  ################################################################################
  #  "First tier" - improvements: -1214.57 meV to -155.61 meV
       hydro 2 p 1.7
       hydro 3 d 6
       hydro 2 s 4.9
  #  "Second tier" - improvements: -67.75 meV to -5.23 meV
  #     hydro 4 f 9.8
  #     hydro 3 p 5.2
  #     hydro 3 s 4.3
  #     hydro 5 g 14.4
  #     hydro 3 d 6.2
  #  "Third tier" - improvements: -2.43 meV to -0.60 meV
  #     hydro 2 p 5.6
  #     hydro 2 s 1.4
  #     hydro 3 d 4.9
  #     hydro 4 f 11.2
  #  "Fourth tier" - improvements: -0.39 meV to -0.18 meV
  #     hydro 2 p 2.1
  #     hydro 5 g 16.4
  #     hydro 4 d 13.2
  #     hydro 3 s 13.6
  #     hydro 4 f 17.6
  #  Further basis functions - improvements: -0.08 meV and below
  #     hydro 3 s 2
  #     hydro 3 p 6
  #     hydro 4 d 20
  ################################################################################
  #
  #  FHI-aims code project
  #  VB, Fritz-Haber Institut, 2009
  #
  #  Suggested "light" defaults for H atom (to be pasted into control.in file)
  #  Be sure to double-check any results obtained with these settings for post-processing,
  #  e.g., with the "tight" defaults and larger basis sets.
  #
  ################################################################################
    species        H
  #     global species definitions
      nucleus             1
      mass                1.00794
  #
      l_hartree           4
  #
      cut_pot             3.5  1.5  1.0
      basis_dep_cutoff    1e-4
  #
      radial_base         24 5.0
      radial_multiplier   1
      angular_grids       specified
        division   0.2421   50
        division   0.3822  110
        division   0.4799  194
        division   0.5341  302
  #      division   0.5626  434
  #      division   0.5922  590
  #      division   0.6542  770
  #      division   0.6868 1202
  #      outer_grid  770
        outer_grid  302
  ################################################################################
  #
  #  Definition of "minimal" basis
  #
  ################################################################################
  #     valence basis states
      valence      1  s   1.
  #     ion occupancy
      ion_occ      1  s   0.5
  ################################################################################
  #
  #  Suggested additional basis functions. For production calculations,
  #  uncomment them one after another (the most important basis functions are
  #  listed first).
  #
  #  Basis constructed for dimers: 0.5 A, 0.7 A, 1.0 A, 1.5 A, 2.5 A
  #
  ################################################################################
  #  "First tier" - improvements: -1014.90 meV to -62.69 meV
       hydro 2 s 2.1
       hydro 2 p 3.5
  #  "Second tier" - improvements: -12.89 meV to -1.83 meV
  #     hydro 1 s 0.85
  #     hydro 2 p 3.7
  #     hydro 2 s 1.2
  #     hydro 3 d 7
  #  "Third tier" - improvements: -0.25 meV to -0.12 meV
  #     hydro 4 f 11.2
  #     hydro 3 p 4.8
  #     hydro 4 d 9
  #     hydro 3 s 3.2
  
  -----------------------------------------------------------------------
  Completed first pass over input file control.in .
  -----------------------------------------------------------------------
  
  
  -----------------------------------------------------------------------
  Parsing geometry.in (first pass over file, find array dimensions only).
  The contents of geometry.in will be repeated verbatim below
  unless switched off by setting 'verbatim_writeout .false.' .
  in the first line of geometry.in .
  -----------------------------------------------------------------------
  
  #===============================================================================
  # Created using the Atomic Simulation Environment (ASE)
  
  # Thu Feb 29 18:03:58 2024
  
  #=======================================================
  lattice_vector 6.2919999999999998 0.0000000000000000 0.0000000000000000
  lattice_vector 0.7557651540526785 7.6528724699892736 0.0000000000000000
  lattice_vector 0.4626936735250475 3.2459069680407238 14.0323465111614372
  atom_frac 0.0670000000000000 0.2699000000000000 0.1413300000000000 C
  atom_frac 0.9330000000000002 0.7301000000000001 0.8586699999999997 C
  atom_frac 0.2158000000000000 0.3662000000000000 0.0860400000000000 C
  atom_frac 0.7842000000000000 0.6337999999999999 0.9139599999999999 C
  atom_frac 0.3999000000000000 0.4101000000000000 0.1292500000000000 C
  atom_frac 0.6001000000000001 0.5899000000000006 0.8707499999999999 C
  atom_frac 0.4300000000000000 0.3565000000000000 0.2245000000000000 C
  atom_frac 0.5700000000000001 0.6435000000000000 0.7755000000000000 C
  atom_frac 0.2786000000000000 0.2547100000000000 0.2854300000000000 C
  atom_frac 0.7214000000000000 0.7452900000000000 0.7145699999999996 C
  atom_frac 0.0912000000000000 0.2111200000000002 0.2417100000000000 C
  atom_frac 0.9088000000000003 0.7888800000000005 0.7582900000000000 C
  atom_frac 0.3062000000000000 0.1996800000000000 0.3830000000000000 C
  atom_frac 0.6938000000000000 0.8003200000000005 0.6169999999999997 C
  atom_frac 0.1553900000000000 0.0990100000000000 0.4433000000000000 C
  atom_frac 0.8446100000000000 0.9009900000000006 0.5567000000000000 C
  atom_frac 0.9684000000000001 0.0554800000000000 0.3991500000000000 C
  atom_frac 0.0316000000000000 0.9445200000000006 0.6008500000000000 C
  atom_frac 0.9425000000000000 0.1125000000000001 0.2997000000000000 C
  atom_frac 0.0575000000000000 0.8875000000000001 0.7002999999999999 C
  atom_frac 0.8177700000000002 0.9561600000000001 0.4584900000000000 C
  atom_frac 0.1822300000000000 0.0438400000000001 0.5415099999999998 C
  atom_frac 0.9456999999999999 0.7095000000000005 0.1972700000000000 C
  atom_frac 0.0543000000000000 0.2904999999999999 0.8027300000000001 C
  atom_frac 0.9049000000000003 0.8289000000000002 0.1134200000000000 C
  atom_frac 0.0950999999999999 0.1710999999999999 0.8865800000000000 C
  atom_frac 0.7006000000000000 0.9305000000000000 0.0967600000000000 C
  atom_frac 0.2994000000000001 0.0695000000000001 0.9032399999999998 C
  atom_frac 0.5431000000000001 0.9075000000000004 0.1648500000000000 C
  atom_frac 0.4568999999999999 0.0925000000000002 0.8351499999999997 C
  atom_frac 0.5796000000000003 0.7817700000000000 0.2543199999999999 C
  atom_frac 0.4203999999999999 0.2182300000000000 0.7456800000000001 C
  atom_frac 0.7864700000000000 0.6795700000000001 0.2718300000000000 C
  atom_frac 0.2135300000000000 0.3204299999999999 0.7281699999999997 C
  atom_frac 0.4216000000000000 0.7547300000000000 0.3253200000000000 C
  atom_frac 0.5784000000000001 0.2452700000000001 0.6746799999999996 C
  atom_frac 0.4575500000000000 0.6287100000000000 0.4128299999999999 C
  atom_frac 0.5424500000000001 0.3712900000000002 0.5871699999999997 C
  atom_frac 0.6652900000000000 0.5259099999999999 0.4297100000000000 C
  atom_frac 0.3347100000000000 0.4740900000000002 0.5702900000000000 C
  atom_frac 0.8251000000000002 0.5558600000000001 0.3573300000000000 C
  atom_frac 0.1748999999999999 0.4441399999999999 0.6426700000000000 C
  atom_frac 0.2985300000000000 0.5996200000000000 0.4843500000000000 C
  atom_frac 0.7014700000000000 0.4003800000000000 0.5156499999999999 C
  atom_frac 0.0802000000000000 0.6430000000000002 0.2085000000000000 H
  atom_frac 0.9198000000000001 0.3570000000000003 0.7914999999999998 H
  atom_frac 0.0158000000000000 0.8454000000000000 0.0630000000000000 H
  atom_frac 0.9842000000000002 0.1546000000000000 0.9370000000000001 H
  atom_frac 0.6718000000000002 0.0170999999999999 0.0353000000000000 H
  atom_frac 0.3281999999999999 0.9829000000000002 0.9647000000000000 H
  atom_frac 0.4072999999999999 0.9761000000000004 0.1535000000000000 H
  atom_frac 0.5927000000000001 0.0238999999999999 0.8465000000000000 H
  atom_frac 0.2852000000000000 0.8227000000000000 0.3131000000000000 H
  atom_frac 0.7148000000000000 0.1773000000000000 0.6869000000000001 H
  atom_frac 0.9613000000000002 0.4891000000000000 0.3682000000000000 H
  atom_frac 0.0386999999999999 0.5109000000000002 0.6317999999999996 H
  atom_frac 0.9426000000000000 0.2419000000000000 0.1120000000000000 H
  atom_frac 0.0574000000000000 0.7581000000000007 0.8879999999999999 H
  atom_frac 0.1966000000000000 0.4055000000000001 0.0161000000000000 H
  atom_frac 0.8034000000000000 0.5945000000000003 0.9838999999999998 H
  atom_frac 0.5082000000000000 0.4785000000000000 0.0897000000000000 H
  atom_frac 0.4918000000000000 0.5215000000000004 0.9102999999999998 H
  atom_frac 0.5515000000000000 0.3858000000000000 0.2534000000000000 H
  atom_frac 0.4485000000000001 0.6142000000000002 0.7465999999999999 H
  atom_frac 0.4283000000000001 0.2296000000000000 0.4107000000000000 H
  atom_frac 0.5716999999999999 0.7704000000000000 0.5892999999999999 H
  atom_frac 0.8196000000000000 0.0821000000000000 0.2708000000000000 H
  atom_frac 0.1804000000000000 0.9178999999999999 0.7292000000000000 H
  atom_frac 0.1625000000000000 0.6669000000000004 0.4741999999999998 H
  atom_frac 0.8374999999999999 0.3331000000000002 0.5258000000000000 H
  atom_frac 0.6951000000000003 0.9270000000000000 0.4308000000000000 H
  atom_frac 0.3048999999999999 0.0730000000000000 0.5691999999999999 H
  
  -----------------------------------------------------------------------
  Completed first pass over input file geometry.in .
  -----------------------------------------------------------------------
  

  Basic array size parameters:
  | Number of species                 :        2
  | Number of atoms                   :       72
  | Number of lattice vectors         :        3
  | Max. basis fn. angular momentum   :        2
  | Max. atomic/ionic basis occupied n:        2
  | Max. number of basis fn. types    :        2
  | Max. radial fns per species/type  :        3
  | Max. logarithmic grid size        :     1277
  | Max. radial integration grid size :       34
  | Max. angular integration grid size:      302
  | Max. angular grid division number :        8
  | Radial grid for Hartree potential :     1277
  | Number of spin channels           :        1

------------------------------------------------------------
          Reading file control.in.
------------------------------------------------------------
  XC: Using PBE gradient-corrected functionals.
  Found k-point grid:         6         6         4
  Convergence accuracy of self-consistent charge density:  0.1000E-05
  Convergence accuracy of forces:  0.1000E-03
  Scalar relativistic treatment of kinetic energy: on-site free-atom approximation to ZORA.
  Requesting a walltime of    40000 seconds.
  Number of s.-c. iterations prior to a full restart of mixing :   200

  Plot band    1
  | begin  0.375000  0.500000  0.075000
  | end    0.000000  0.000000  0.000000
  | number of points:    2

  Plot band    2
  | begin  0.356080  0.497730  0.073610
  | end    0.000000  0.000000  0.000000
  | number of points:    2

  Plot band    3
  | begin  0.393920  0.502270  0.076390
  | end    0.000000  0.000000  0.000000
  | number of points:    2

  Plot band    4
  | begin  0.375000  0.476980  0.065240
  | end    0.000000  0.000000  0.000000
  | number of points:    2

  Plot band    5
  | begin  0.375000  0.523020  0.084760
  | end    0.000000  0.000000  0.000000
  | number of points:    2

  Plot band    6
  | begin  0.375000  0.500000  0.032800
  | end    0.000000  0.000000  0.000000
  | number of points:    2

  Plot band    7
  | begin  0.375000  0.500000  0.117200
  | end    0.000000  0.000000  0.000000
  | number of points:    2

  Plot band    8
  | begin  0.356080  0.474710  0.063850
  | end    0.000000  0.000000  0.000000
  | number of points:    2

  Plot band    9
  | begin  0.393920  0.525290  0.086150
  | end    0.000000  0.000000  0.000000
  | number of points:    2

  Plot band   10
  | begin  0.393920  0.479260  0.066630
  | end    0.000000  0.000000  0.000000
  | number of points:    2

  Plot band   11
  | begin  0.356080  0.520740  0.083370
  | end    0.000000  0.000000  0.000000
  | number of points:    2

  Plot band   12
  | begin  0.356080  0.497730  0.031400
  | end    0.000000  0.000000  0.000000
  | number of points:    2

  Plot band   13
  | begin  0.393920  0.502270  0.118600
  | end    0.000000  0.000000  0.000000
  | number of points:    2

  Plot band   14
  | begin  0.393920  0.502270  0.034190
  | end    0.000000  0.000000  0.000000
  | number of points:    2

  Plot band   15
  | begin  0.356080  0.497730  0.115810
  | end    0.000000  0.000000  0.000000
  | number of points:    2

  Plot band   16
  | begin  0.375000  0.476980  0.023030
  | end    0.000000  0.000000  0.000000
  | number of points:    2

  Plot band   17
  | begin  0.375000  0.523020  0.126970
  | end    0.000000  0.000000  0.000000
  | number of points:    2

  Plot band   18
  | begin  0.375000  0.523020  0.042560
  | end    0.000000  0.000000  0.000000
  | number of points:    2

  Plot band   19
  | begin  0.375000  0.476980  0.107440
  | end    0.000000  0.000000  0.000000
  | number of points:    2
 
  Reading configuration options for species C                   .
  | Found nuclear charge :   6.0000
  | Found atomic mass :    12.0107000000000      amu
  | Found l_max for Hartree potential  :   4
  | Found cutoff potl. onset [A], width [A], scale factor :    3.50000    1.50000    1.00000
  | Threshold for basis-dependent cutoff potential is   0.100000E-03
  | Found data for basic radial integration grid :    34 points, outermost radius =    5.000 A
  | Found multiplier for basic radial grid :   1
  | Found angular grid specification: user-specified.
  | Specified grid contains     5 separate shells.
  | Check grid settings after all constraints further below.
  | Found free-atom valence shell :  2 s   2.000
  | Found free-atom valence shell :  2 p   2.000
  | No ionic wave fns used. Skipping ion_occ.
  | No ionic wave fns used. Skipping ion_occ.
  | Found hydrogenic basis function :  2 p   1.700
  | Found hydrogenic basis function :  3 d   6.000
  | Found hydrogenic basis function :  2 s   4.900
  Species C                   : Missing cutoff potential type.
  Defaulting to exp(1/x)/(1-x)^2 type cutoff potential.
  Species C : No 'logarithmic' tag. Using default grid for free atom:
  | Default logarithmic grid data [bohr] : 0.1000E-03 0.1000E+03 0.1012E+01
  Species C : On-site basis accuracy parameter (for Gram-Schmidt orthonormalisation) not specified.
  Using default value basis_acc =  0.1000000E-03.
  Species C                   : Using default innermost maximum threshold i_radial=  2 for radial functions.
  Species C                   : Default cutoff onset for free atom density etc. : 0.35000000E+01 AA.
  Species C                   : Basic radial grid will be enhanced according to radial_multiplier =   1, to contain    34 grid points.
 
  Reading configuration options for species H                   .
  | Found nuclear charge :   1.0000
  | Found atomic mass :    1.00794000000000      amu
  | Found l_max for Hartree potential  :   4
  | Found cutoff potl. onset [A], width [A], scale factor :    3.50000    1.50000    1.00000
  | Threshold for basis-dependent cutoff potential is   0.100000E-03
  | Found data for basic radial integration grid :    24 points, outermost radius =    5.000 A
  | Found multiplier for basic radial grid :   1
  | Found angular grid specification: user-specified.
  | Specified grid contains     5 separate shells.
  | Check grid settings after all constraints further below.
  | Found free-atom valence shell :  1 s   1.000
  | No ionic wave fns used. Skipping ion_occ.
  | Found hydrogenic basis function :  2 s   2.100
  | Found hydrogenic basis function :  2 p   3.500
  Species H                   : Missing cutoff potential type.
  Defaulting to exp(1/x)/(1-x)^2 type cutoff potential.
  Species H : No 'logarithmic' tag. Using default grid for free atom:
  | Default logarithmic grid data [bohr] : 0.1000E-03 0.1000E+03 0.1012E+01
  Species H : On-site basis accuracy parameter (for Gram-Schmidt orthonormalisation) not specified.
  Using default value basis_acc =  0.1000000E-03.
  Species H                   : Using default innermost maximum threshold i_radial=  2 for radial functions.
  Species H                   : Default cutoff onset for free atom density etc. : 0.35000000E+01 AA.
  Species H                   : Basic radial grid will be enhanced according to radial_multiplier =   1, to contain    24 grid points.
 
  Finished reading input file 'control.in'.
 
------------------------------------------------------------


------------------------------------------------------------
          Reading geometry description geometry.in.
------------------------------------------------------------
  | The smallest distance between any two atoms is         0.94339563 AA.
  | The first atom of this pair is atom number                     24 .
  | The second atom of this pair is atom number                    46 .
  | Wigner-Seitz cell of the first atom image           0     0     0 .
  | (The Wigner-Seitz cell of the second atom is 0 0 0  by definition.)

  Symmetry information by spglib:
  | Precision set to  0.1E-04
  | Number of Operations  : 2
  | Space group           : 2
  | International         : P-1 atom_fr
  | Schoenflies           : Ci^1
  Input structure read successfully.
  The structure contains       72 atoms,  and a total of        292.000 electrons.

  Input geometry:
  | Unit cell:
  |        6.29200000        0.00000000        0.00000000
  |        0.75576515        7.65287247        0.00000000
  |        0.46269367        3.24590697       14.03234651
  | Atomic structure:
  |       Atom                x [A]            y [A]            z [A]
  |    1: Species C             0.69093751        2.52425431        1.98319153
  |    2: Species C             6.81952132        8.37452513       12.04915498
  |    3: Species C             1.67438496        3.08175973        1.20734309
  |    4: Species C             5.83607386        7.81701970       12.82500342
  |    5: Species C             2.88591325        3.55797648        1.81368079
  |    6: Species C             4.62454558        7.34080296       12.21866572
  |    7: Species C             3.07886501        3.45695515        3.15026179
  |    8: Species C             4.43159382        7.44182429       10.88208472
  |    9: Species C             2.07751880        2.87574237        4.00525266
  |   10: Species C             5.43294003        8.02303707       10.02709385
  |   11: Species C             0.84522523        2.40024261        3.39175848
  |   12: Species C             6.66523360        8.49853683       10.64058804
  |   13: Species C             2.25473326        2.77130794        5.37438871
  |   14: Species C             5.25572556        8.12747149        8.65795780
  |   15: Species C             1.25765429        2.19662146        6.22053921
  |   16: Species C             6.25280453        8.70215798        7.81180730
  |   17: Species C             6.31978683        1.72018513        5.60101111
  |   18: Species C             1.19067200        9.17859431        8.43133540
  |   19: Species C             6.15390287        1.83374647        4.20549425
  |   20: Species C             1.35655595        9.06503297        9.82685226
  |   21: Species C             6.08018167        8.80558643        6.43369055
  |   22: Species C             1.43027716        2.09319301        7.59865596
  |   23: Species C             6.57783536        6.07003309        2.76816100
  |   24: Species C             0.93262347        4.82874635       11.26418551
  |   25: Species C             6.37256325        6.71161676        1.59154874
  |   26: Species C             1.13789557        4.18716268       12.44079777
  |   27: Species C             5.15618492        7.43507179        1.35776985
  |   28: Species C             2.35427391        3.46370765       12.67457666
  |   29: Species C             4.17931713        7.48006953        2.31323232
  |   30: Species C             3.33114170        3.41870991       11.71911419
  |   31: Species C             4.35534998        6.80828517        3.56870636
  |   32: Species C             3.15510885        4.09049427       10.46364015
  |   33: Species C             5.58783859        6.08299744        3.81441275
  |   34: Species C             1.92262024        4.81578200       10.21793376
  |   35: Species C             3.37362934        6.83181089        4.56500297
  |   36: Species C             4.13682949        4.06696854        9.46734354
  |   37: Species C             3.54507554        6.15144522        5.79297361
  |   38: Species C             3.96538329        4.74733421        8.23937290
  |   39: Species C             4.78229323        5.41952084        6.02983962
  |   40: Species C             2.72816560        5.47925859        8.00250689
  |   41: Species C             5.77696315        5.41378563        5.01417838
  |   42: Species C             1.73349568        5.48499381        9.01816813
  |   43: Species C             2.55562834        6.16097043        6.79656703
  |   44: Species C             4.95483049        4.73780901        7.23577948
  |   45: Species H             1.08704702        5.59756860        2.92574425
  |   46: Species H             6.42341180        5.30121084       11.10660226
  |   47: Species H             0.76748716        6.67423053        0.88403783
  |   48: Species H             6.74297166        4.22454891       13.14830868
  |   49: Species H             4.25622227        0.24544464        0.49534183
  |   50: Species H             3.25423656       10.65333480       13.53700468
  |   51: Species H             3.37145745        7.96821554        2.15396519
  |   52: Species H             4.13900138        2.93056390       11.87838132
  |   53: Species H             2.56111578        7.31231165        4.39352769
  |   54: Species H             4.94934305        3.58646779        9.63881882
  |   55: Species H             6.58850815        4.93816287        5.16670999
  |   56: Species H             0.92195068        5.96061657        8.86563653
  |   57: Species H             6.16548048        2.21477143        1.57162281
  |   58: Species H             1.34497835        8.68400801       12.46072370
  |   59: Species H             1.55091934        3.15549889        0.22592078
  |   60: Species H             5.95953949        7.74328055       13.80642573
  |   61: Species H             3.60073165        3.95305733        1.25870148
  |   62: Species H             3.90972718        6.94572211       12.77364503
  |   63: Species H             3.87885877        3.77499102        3.55579661
  |   64: Species H             3.63160005        7.12378841       10.47654991
  |   65: Species H             3.05841557        3.09019351        5.76308471
  |   66: Species H             4.45204326        7.80858593        8.26926180
  |   67: Species H             5.34426897        1.50729244        3.79995944
  |   68: Species H             2.16618986        9.39148700       10.23238708
  |   69: Species H             1.74587912        6.64290973        6.65413872
  |   70: Species H             5.76457971        4.25586970        7.37820780
  |   71: Species H             5.27349193        8.49254950        6.04513488
  |   72: Species H             2.23696690        2.40622994        7.98721163

  Lattice parameters for 3D lattice (in Angstroms) :     6.292000    7.690100   14.410300
  Angle(s) between unit vectors (in degrees)       :    76.861000   88.160000   84.360000


  Quantities derived from the lattice vectors (in Angstrom^-1):
  | Reciprocal lattice vector 1:  0.998599 -0.098617 -0.010115
  | Reciprocal lattice vector 2:  0.000000  0.821023 -0.189916
  | Reciprocal lattice vector 3:  0.000000  0.000000  0.447764
  | Unit cell volume                               :   0.675684E+03  Angstrom^3

  Fractional coordinates:
                         L1                L2                L3
       atom_frac         0.06700000        0.26990000        0.14133000  C
       atom_frac         0.93300000        0.73010000        0.85867000  C
       atom_frac         0.21580000        0.36620000        0.08604000  C
       atom_frac         0.78420000        0.63380000        0.91396000  C
       atom_frac         0.39990000        0.41010000        0.12925000  C
       atom_frac         0.60010000        0.58990000        0.87075000  C
       atom_frac         0.43000000        0.35650000        0.22450000  C
       atom_frac         0.57000000        0.64350000        0.77550000  C
       atom_frac         0.27860000        0.25471000        0.28543000  C
       atom_frac         0.72140000        0.74529000        0.71457000  C
       atom_frac         0.09120000        0.21112000        0.24171000  C
       atom_frac         0.90880000        0.78888000        0.75829000  C
       atom_frac         0.30620000        0.19968000        0.38300000  C
       atom_frac         0.69380000        0.80032000        0.61700000  C
       atom_frac         0.15539000        0.09901000        0.44330000  C
       atom_frac         0.84461000        0.90099000        0.55670000  C
       atom_frac         0.96840000        0.05548000        0.39915000  C
       atom_frac         0.03160000        0.94452000        0.60085000  C
       atom_frac         0.94250000        0.11250000        0.29970000  C
       atom_frac         0.05750000        0.88750000        0.70030000  C
       atom_frac         0.81777000        0.95616000        0.45849000  C
       atom_frac         0.18223000        0.04384000        0.54151000  C
       atom_frac         0.94570000        0.70950000        0.19727000  C
       atom_frac         0.05430000        0.29050000        0.80273000  C
       atom_frac         0.90490000        0.82890000        0.11342000  C
       atom_frac         0.09510000        0.17110000        0.88658000  C
       atom_frac         0.70060000        0.93050000        0.09676000  C
       atom_frac         0.29940000        0.06950000        0.90324000  C
       atom_frac         0.54310000        0.90750000        0.16485000  C
       atom_frac         0.45690000        0.09250000        0.83515000  C
       atom_frac         0.57960000        0.78177000        0.25432000  C
       atom_frac         0.42040000        0.21823000        0.74568000  C
       atom_frac         0.78647000        0.67957000        0.27183000  C
       atom_frac         0.21353000        0.32043000        0.72817000  C
       atom_frac         0.42160000        0.75473000        0.32532000  C
       atom_frac         0.57840000        0.24527000        0.67468000  C
       atom_frac         0.45755000        0.62871000        0.41283000  C
       atom_frac         0.54245000        0.37129000        0.58717000  C
       atom_frac         0.66529000        0.52591000        0.42971000  C
       atom_frac         0.33471000        0.47409000        0.57029000  C
       atom_frac         0.82510000        0.55586000        0.35733000  C
       atom_frac         0.17490000        0.44414000        0.64267000  C
       atom_frac         0.29853000        0.59962000        0.48435000  C
       atom_frac         0.70147000        0.40038000        0.51565000  C
       atom_frac         0.08020000        0.64300000        0.20850000  H
       atom_frac         0.91980000        0.35700000        0.79150000  H
       atom_frac         0.01580000        0.84540000        0.06300000  H
       atom_frac         0.98420000        0.15460000        0.93700000  H
       atom_frac         0.67180000        0.01710000        0.03530000  H
       atom_frac         0.32820000        0.98290000        0.96470000  H
       atom_frac         0.40730000        0.97610000        0.15350000  H
       atom_frac         0.59270000        0.02390000        0.84650000  H
       atom_frac         0.28520000        0.82270000        0.31310000  H
       atom_frac         0.71480000        0.17730000        0.68690000  H
       atom_frac         0.96130000        0.48910000        0.36820000  H
       atom_frac         0.03870000        0.51090000        0.63180000  H
       atom_frac         0.94260000        0.24190000        0.11200000  H
       atom_frac         0.05740000        0.75810000        0.88800000  H
       atom_frac         0.19660000        0.40550000        0.01610000  H
       atom_frac         0.80340000        0.59450000        0.98390000  H
       atom_frac         0.50820000        0.47850000        0.08970000  H
       atom_frac         0.49180000        0.52150000        0.91030000  H
       atom_frac         0.55150000        0.38580000        0.25340000  H
       atom_frac         0.44850000        0.61420000        0.74660000  H
       atom_frac         0.42830000        0.22960000        0.41070000  H
       atom_frac         0.57170000        0.77040000        0.58930000  H
       atom_frac         0.81960000        0.08210000        0.27080000  H
       atom_frac         0.18040000        0.91790000        0.72920000  H
       atom_frac         0.16250000        0.66690000        0.47420000  H
       atom_frac         0.83750000        0.33310000        0.52580000  H
       atom_frac         0.69510000        0.92700000        0.43080000  H
       atom_frac         0.30490000        0.07300000        0.56920000  H

 
  Finished reading input file 'geometry.in'.
 

 
  Consistency checks for stacksize environment parameter are next.
 
  | Maximum stacksize for task 0: unlimited
  | Maximum stacksize for task 1: unlimited
  | Maximum stacksize for task 2: unlimited
  | Maximum stacksize for task 3: unlimited
  | Maximum stacksize for task 4: unlimited
  | Maximum stacksize for task 5: unlimited
  | Maximum stacksize for task 6: unlimited
  | Maximum stacksize for task 7: unlimited
  | Maximum stacksize for task 8: unlimited
  | Maximum stacksize for task 9: unlimited
  | Maximum stacksize for task 10: unlimited
  | Maximum stacksize for task 11: unlimited
  | Maximum stacksize for task 12: unlimited
  | Maximum stacksize for task 13: unlimited
  | Maximum stacksize for task 14: unlimited
  | Maximum stacksize for task 15: unlimited
  | Maximum stacksize for task 16: unlimited
  | Maximum stacksize for task 17: unlimited
  | Maximum stacksize for task 18: unlimited
  | Maximum stacksize for task 19: unlimited
  | Maximum stacksize for task 20: unlimited
  | Maximum stacksize for task 21: unlimited
  | Maximum stacksize for task 22: unlimited
  | Maximum stacksize for task 23: unlimited
  | Maximum stacksize for task 24: unlimited
  | Maximum stacksize for task 25: unlimited
  | Maximum stacksize for task 26: unlimited
  | Maximum stacksize for task 27: unlimited
  | Maximum stacksize for task 28: unlimited
  | Maximum stacksize for task 29: unlimited
  | Maximum stacksize for task 30: unlimited
  | Maximum stacksize for task 31: unlimited
  | Maximum stacksize for task 32: unlimited
  | Maximum stacksize for task 33: unlimited
  | Maximum stacksize for task 34: unlimited
  | Maximum stacksize for task 35: unlimited
  | Maximum stacksize for task 36: unlimited
  | Maximum stacksize for task 37: unlimited
  | Maximum stacksize for task 38: unlimited
  | Maximum stacksize for task 39: unlimited
  | Current stacksize for task 0: unlimited
  | Current stacksize for task 1: unlimited
  | Current stacksize for task 2: unlimited
  | Current stacksize for task 3: unlimited
  | Current stacksize for task 4: unlimited
  | Current stacksize for task 5: unlimited
  | Current stacksize for task 6: unlimited
  | Current stacksize for task 7: unlimited
  | Current stacksize for task 8: unlimited
  | Current stacksize for task 9: unlimited
  | Current stacksize for task 10: unlimited
  | Current stacksize for task 11: unlimited
  | Current stacksize for task 12: unlimited
  | Current stacksize for task 13: unlimited
  | Current stacksize for task 14: unlimited
  | Current stacksize for task 15: unlimited
  | Current stacksize for task 16: unlimited
  | Current stacksize for task 17: unlimited
  | Current stacksize for task 18: unlimited
  | Current stacksize for task 19: unlimited
  | Current stacksize for task 20: unlimited
  | Current stacksize for task 21: unlimited
  | Current stacksize for task 22: unlimited
  | Current stacksize for task 23: unlimited
  | Current stacksize for task 24: unlimited
  | Current stacksize for task 25: unlimited
  | Current stacksize for task 26: unlimited
  | Current stacksize for task 27: unlimited
  | Current stacksize for task 28: unlimited
  | Current stacksize for task 29: unlimited
  | Current stacksize for task 30: unlimited
  | Current stacksize for task 31: unlimited
  | Current stacksize for task 32: unlimited
  | Current stacksize for task 33: unlimited
  | Current stacksize for task 34: unlimited
  | Current stacksize for task 35: unlimited
  | Current stacksize for task 36: unlimited
  | Current stacksize for task 37: unlimited
  | Current stacksize for task 38: unlimited
  | Current stacksize for task 39: unlimited
 
  Consistency checks for the contents of control.in are next.
 
  MPI_IN_PLACE appears to work with this MPI implementation.
  | Keeping use_mpi_in_place .true. (see manual).
  Target number of points in a grid batch is not set. Defaulting to  100
  Method for grid partitioning is not set. Defaulting to parallel hash+maxmin partitioning.
  Batch size limit is not set. Defaulting to    200
  By default, will store active basis functions for each batch.
  If in need of memory, prune_basis_once .false. can be used to disable this option.
  communication_type for Hartree potential was not specified.
  Defaulting to calc_hartree .
  Defaulting to Pulay charge density mixer.
  Pulay mixer: Number of relevant iterations not set.
  Defaulting to    8 iterations.
  Pulay mixer: Number of initial linear mixing iterations not set.
  Defaulting to    0 iterations.
  Work space size for distributed Hartree potential not set.
  Defaulting to   0.200000E+03 MB.
  Mixing parameter for charge density mixing has not been set.
  Using default: charge_mix_param =     0.0500.
  The mixing parameter will be adjusted in iteration number     2 of the first full s.c.f. cycle only.
  Algorithm-dependent basis array size parameters:
  | n_max_pulay                         :        8
  Maximum number of self-consistency iterations not provided.
  Presetting  1000 iterations.
  Presetting a factor      1.000 between actual scf density residual
  and density convergence criterion sc_accuracy_rho below which sc_init_iter
  takes no effect.
  Geometry relaxation not requested: no relaxation will be performed.
  Forces evaluation will include force correction term due to incomplete self-consistency (default).
  Handling of forces: Unphysical translation and rotation will be removed from forces.
  No accuracy limit for integral partition fn. given. Defaulting to  0.1000E-14.
  No threshold value for u(r) in integrations given. Defaulting to  0.1000E-05.
  No occupation type (smearing scheme) given. Defaulting to Gaussian broadening, width =  0.1000E-01 eV.
  The width will be adjusted in iteration number     2 of the first full s.c.f. cycle only.
  S.C.F. convergence parameters will be adjusted in iteration number     2 of the first full s.c.f. cycle only.
  No accuracy for occupation numbers given. Defaulting to  0.1000E-12.
  No threshold value for occupation numbers given. Defaulting to  0.0000E+00.
  No accuracy for fermi level given. Defaulting to  0.1000E-19.
  Maximum # of iterations to find E_F not set. Defaulting to  200.
  Preferred method for the eigenvalue solver ('KS_method') not specified in 'control.in'.
  Defaulting to serial version, LAPACK (via ELSI), since more k-points than CPUs available.
  Will not use alltoall communication since running on < 1024 CPUs.
  Threshold for basis singularities not set.
  Default threshold for basis singularities:  0.1000E-04
  partition_type (choice of integration weights) for integrals was not specified.
  | Using a version of the partition function of Stratmann and coworkers ('stratmann_sparse').
  | At each grid point, the set of atoms used to build the partition table is smoothly restricted to
  | only those atoms whose free-atom density would be non-zero at that grid point.
  Partitioning for Hartree potential was not defined. Using partition_type for integrals.
  | Adjusted default value of keyword multip_moments_threshold to:       0.10000000E-11
  | This value may affect high angular momentum components of the Hartree potential in periodic systems.
  Spin handling was not defined in control.in. Defaulting to unpolarized case.
  Angular momentum expansion for Kerker preconditioner not set explicitly.
  | Using default value of   0
  No explicit requirement for turning off preconditioner.
  | By default, it will be turned off when the charge convergence reaches
  | sc_accuracy_rho  =   0.100000E-05
  No special mixing parameter while Kerker preconditioner is on.
  Using default: charge_mix_param =     0.0500.
  No q(lm)/r^(l+1) cutoff set for long-range Hartree potential.
  | Using default value of  0.100000E-09 .
  | Verify using the multipole_threshold keyword.
  Defaulting to new monopole extrapolation.
  Density update method: automatic selection selected.
  Using density matrix based charge density update.
  Using density matrix based charge density update.
  Using packed matrix style: index .
  Defaulting to use time-reversal symmetry for k-point grid.
  Charge integration errors on the 3D integration grid will be compensated
  by explicit normalization and distribution of residual charges.
  Use the "compensate_multipole_errors" flag to change this behaviour.
  Set 'collect_eigenvectors' to be '.true.' for all serial calculations. This is mandatory.
  Set 'collect_eigenvectors' to be '.true.' for KS_method lapack_fast and serial.
 
  Consistency checks for the contents of geometry.in are next.
 

  Range separation radius for Ewald summation (hartree_convergence_parameter):      2.89915979 bohr.
  Number of empty states per atom not set in control.in - providing a guess from actual geometry.
  | Total number of empty states used during s.c.f. cycle:      174
  If you use a very high smearing, use empty_states (per atom!) in control.in to increase this value.
  * Since a DOS, bandstructure or SOC calculation was requested, the number of empty states requested was INCREASED.
  | Number of empty states (old):  348.00000
  | Number of empty states (new):  358.00000

  Structure-dependent array size parameters: 
  | Maximum number of distinct radial functions  :        9
  | Maximum number of basis functions            :      756
  | Number of Kohn-Sham states (occupied + empty):      325
------------------------------------------------------------
  After read_input_data [GB]:    180.96

  Performing system and environment tests:
  | Environment variable OMP_NUM_THREADS correctly set to 1.
  | Checking for ScaLAPACK...
  | Testing pdtran()...
  | All pdtran() tests passed.
  After prepare_system [GB]:    180.75

------------------------------------------------------------
          Preparing all fixed parts of the calculation.
------------------------------------------------------------
  Determining machine precision:
    2.225073858507201E-308
  Setting up grids for atomic and cluster calculations.

  Creating wave function, potential, and density for free atoms.
  Runtime choices for atomic solver:
  | atomic solver xc        : PBE
  | compute density gradient: 1
  | compute kinetic density : F

  Species: C

  List of occupied orbitals and eigenvalues:
    n    l              occ      energy [Ha]    energy [eV]
    1    0           2.0000       -10.046810      -273.3876
    2    0           2.0000        -0.503128       -13.6908
    2    1           2.0000        -0.191849        -5.2205


  Species: H

  List of occupied orbitals and eigenvalues:
    n    l              occ      energy [Ha]    energy [eV]
    1    0           1.0000        -0.237593        -6.4652


  Adding cutoff potential to free-atom effective potential.
  Creating fixed part of basis set: Ionic, confined, hydrogenic.
 
  C                    hydrogenic:
 
  List of hydrogenic basis orbitals: 
    n    l      effective z      eigenvalue [eV]  inner max. [A]     outer max. [A]     outer radius [A]   
    2    1         1.700000        -9.7616           1.230570           1.230570           4.607917
    3    2         6.000000       -54.4224           0.792453           0.792453           3.883070
    2    0         4.900000       -81.6679           0.082559           0.562749           3.078220
 
 
  H                    hydrogenic:
 
  List of hydrogenic basis orbitals: 
    n    l      effective z      eigenvalue [eV]  inner max. [A]     outer max. [A]     outer radius [A]   
    2    0         2.100000       -14.9728           0.193243           1.317208           4.583499
    2    1         3.500000       -41.6669           0.602369           0.602369           3.723403
 
  Creating atomic-like basis functions for current effective potential.

  Species C                   :

  List of atomic basis orbitals and eigenvalues:
    n    l      energy [Ha]    energy [eV]    outer radius [A]
    1    0       -10.046810      -273.3876       1.934409
    2    0        -0.503128       -13.6908       4.496620
    2    1        -0.191849        -5.2205       4.551928


  Species H                   :

  List of atomic basis orbitals and eigenvalues:
    n    l      energy [Ha]    energy [eV]    outer radius [A]
    1    0        -0.237593        -6.4652       4.527807

  Assembling full basis from fixed parts.
  | Species C :   atomic orbital   1 s accepted.
  | Species C :    hydro orbital   2 s accepted.
  | Species C :   atomic orbital   2 s accepted.
  | Species C :   atomic orbital   2 p accepted.
  | Species C :    hydro orbital   2 p accepted.
  | Species C :    hydro orbital   3 d accepted.
  | Species H :   atomic orbital   1 s accepted.
  | Species H :    hydro orbital   2 s accepted.
  | Species H :    hydro orbital   2 p accepted.
 
  Basis size parameters after reduction:
  | Total number of radial functions:        9
  | Total number of basis functions :      756
 
  Per-task memory consumption for arrays in subroutine allocate_ext:
  |           2.961088MB.
  Testing on-site integration grid accuracy.
  |  Species  Function  <phi|h_atom|phi> (log., in eV)  <phi|h_atom|phi> (rad., in eV)
           1        1               -273.3876219248               -273.3875919908
           1        2                -10.7204647119                -10.7200987605
           1        3                 17.5782951162                 17.5752355731
           1        4                 -5.2222267983                 -5.2237454471
           1        5                  8.6866956284                  8.6634852736
           1        6                 27.4984676161                 27.4985577266
           2        7                 -6.4664147733                 -6.4652229287
           2        8                 13.7099062243                 13.7158503352
           2        9                 25.2661739479                 25.2663166526

  Preparing densities etc. for the partition functions (integrals / Hartree potential).

  Preparations completed.
  max(cpu_time)          :      0.106 s.
  Wall clock time (cpu1) :      0.104 s.
------------------------------------------------------------
  After prepare_scf [GB]:    180.46

  Initializing index lists of integration centers etc. from given atomic structure:
  Mapping all atomic coordinates to central unit cell.

  Initializing the k-points
  Using symmetry for reducing the k-points
  | k-points reduced from:      144 to       76
  | Number of k-points                             :        76
  The eigenvectors in the calculations are COMPLEX.
  | K-points in task   0:         1
  | K-points in task   1:         2
  | K-points in task   2:         2
  | K-points in task   3:         2
  | K-points in task   4:         2
  | K-points in task   5:         2
  | K-points in task   6:         2
  | K-points in task   7:         2
  | K-points in task   8:         2
  | K-points in task   9:         2
  | K-points in task  10:         2
  | K-points in task  11:         2
  | K-points in task  12:         2
  | K-points in task  13:         2
  | K-points in task  14:         2
  | K-points in task  15:         2
  | K-points in task  16:         2
  | K-points in task  17:         2
  | K-points in task  18:         2
  | K-points in task  19:         2
  | K-points in task  20:         2
  | K-points in task  21:         2
  | K-points in task  22:         2
  | K-points in task  23:         2
  | K-points in task  24:         2
  | K-points in task  25:         2
  | K-points in task  26:         2
  | K-points in task  27:         2
  | K-points in task  28:         2
  | K-points in task  29:         2
  | K-points in task  30:         2
  | K-points in task  31:         2
  | K-points in task  32:         2
  | K-points in task  33:         2
  | K-points in task  34:         2
  | K-points in task  35:         2
  | K-points in task  36:         2
  | K-points in task  37:         1
  | K-points in task  38:         1
  | K-points in task  39:         1
  | Number of basis functions in the Hamiltonian integrals :      5576
  | Number of basis functions in a single unit cell        :       756
  | Number of centers in hartree potential         :      2486
  | Number of centers in hartree multipole         :      1892
  | Number of centers in electron density summation:      1430
  | Number of centers in basis integrals           :      1534
  | Number of centers in integrals                 :       666
  | Number of centers in hamiltonian               :      1438
  | Consuming         68 KiB for k_phase.
  | Number of super-cells (origin) [n_cells]                     :         245
  | Number of super-cells (after PM_index) [n_cells]             :          58
  | Number of super-cells in hamiltonian [n_cells_in_hamiltonian]:          58
  | Size of matrix packed + index [n_hamiltonian_matrix_size] :     1095008
  After initialize_bc_dependent_lists [GB]:    180.08

------------------------------------------------------------
          Begin self-consistency loop: Initialization.

          Date     :  20240229, Time     :  180419.895
------------------------------------------------------------
  Available memory per node after initialize_hartree_non_periodic_ewald [GB]:    180.08
  | Estimated reciprocal-space cutoff momentum G_max:         3.26513702 bohr^-1 .
  | Reciprocal lattice points for long-range Hartree potential:    2684
  Available memory per node after initialize_recip_hartree_potential [GB]:    180.08
  Available memory per node after initialize_scalapack [GB]:    180.08
  Available memory per node after aims_elsi_init_scf [GB]:    180.08
  Available memory per node after initialize_fixed_grids [GB]:    180.08
  Partitioning the integration grid into batches with parallel hashing+maxmin method.
  | Number of batches:     4580
  | Maximal batch size:     151
  | Minimal batch size:      24
  | Average batch size:      84.276
  | Standard deviation of batch sizes:      21.047

  Integration load balanced across    40 MPI tasks.
  Work distribution over tasks is as follows:
  Task     0 has       9709 integration points.
  Task     1 has       9670 integration points.
  Task     2 has       9689 integration points.
  Task     3 has       9638 integration points.
  Task     4 has       9633 integration points.
  Task     5 has       9693 integration points.
  Task     6 has       9663 integration points.
  Task     7 has       9615 integration points.
  Task     8 has       9611 integration points.
  Task     9 has       9614 integration points.
  Task    10 has       9642 integration points.
  Task    11 has       9611 integration points.
  Task    12 has       9708 integration points.
  Task    13 has       9643 integration points.
  Task    14 has       9705 integration points.
  Task    15 has       9615 integration points.
  Task    16 has       9639 integration points.
  Task    17 has       9637 integration points.
  Task    18 has       9633 integration points.
  Task    19 has       9661 integration points.
  Task    20 has       9703 integration points.
  Task    21 has       9609 integration points.
  Task    22 has       9612 integration points.
  Task    23 has       9632 integration points.
  Task    24 has       9636 integration points.
  Task    25 has       9676 integration points.
  Task    26 has       9629 integration points.
  Task    27 has       9621 integration points.
  Task    28 has       9613 integration points.
  Task    29 has       9667 integration points.
  Task    30 has       9701 integration points.
  Task    31 has       9632 integration points.
  Task    32 has       9617 integration points.
  Task    33 has       9620 integration points.
  Task    34 has       9666 integration points.
  Task    35 has       9656 integration points.
  Task    36 has       9659 integration points.
  Task    37 has       9709 integration points.
  Task    38 has       9661 integration points.
  Task    39 has       9636 integration points.
  Available memory per node after partition_grid [GB]:    180.06
  Initializing partition tables, free-atom densities, potentials, etc. across the integration grid (initialize_grid_storage).
  | initialize_grid_storage: Actual outermost partition radius vs. multipole_radius_free
  | (-- VB: in principle, multipole_radius_free should be larger, hence this output)
  | Species        1: Confinement radius =              4.999999999999999 AA, multipole_radius_free =              5.019602836301480 AA.
  | Species        1: outer_partition_radius set to              5.019602836301480 AA .
  | Species        2: Confinement radius =              4.999999999999999 AA, multipole_radius_free =              5.054417573612229 AA.
  | Species        2: outer_partition_radius set to              5.054417573612229 AA .
  | The sparse table of interatomic distances needs       5328.86 kbyte instead of     18825.25 kbyte of memory.
  | Net number of integration points:   385984
  | of which are non-zero points    :   304484
  | Numerical average free-atom electrostatic potential    :     -9.20184078 eV
  Available memory per node after initialize_grid_storage_p1 [GB]:    179.96
  Renormalizing the initial density to the exact electron count on the 3D integration grid.
  | Initial density: Formal number of electrons (from input files) :     292.0000000000
  | Integrated number of electrons on 3D grid     :     291.9945978573
  | Charge integration error                      :      -0.0054021427
  | Normalization factor for density and gradient :       1.0000185008
  Renormalizing the free-atom superposition density to the exact electron count on the 3D integration grid.
  | Formal number of electrons (from input files) :     292.0000000000
  | Integrated number of electrons on 3D grid     :     291.9945978573
  | Charge integration error                      :      -0.0054021427
  | Normalization factor for density and gradient :       1.0000185008
  Obtaining max. number of non-zero basis functions in each batch (get_n_compute_maxes).
  | Maximal number of non-zero basis functions:      600 in task     0
  | Maximal number of non-zero basis functions:      576 in task     1
  | Maximal number of non-zero basis functions:      639 in task     2
  | Maximal number of non-zero basis functions:      575 in task     3
  | Maximal number of non-zero basis functions:      581 in task     4
  | Maximal number of non-zero basis functions:      567 in task     5
  | Maximal number of non-zero basis functions:      593 in task     6
  | Maximal number of non-zero basis functions:      575 in task     7
  | Maximal number of non-zero basis functions:      593 in task     8
  | Maximal number of non-zero basis functions:      585 in task     9
  | Maximal number of non-zero basis functions:      577 in task    10
  | Maximal number of non-zero basis functions:      587 in task    11
  | Maximal number of non-zero basis functions:      567 in task    12
  | Maximal number of non-zero basis functions:      578 in task    13
  | Maximal number of non-zero basis functions:      560 in task    14
  | Maximal number of non-zero basis functions:      572 in task    15
  | Maximal number of non-zero basis functions:      580 in task    16
  | Maximal number of non-zero basis functions:      574 in task    17
  | Maximal number of non-zero basis functions:      575 in task    18
  | Maximal number of non-zero basis functions:      552 in task    19
  | Maximal number of non-zero basis functions:      556 in task    20
  | Maximal number of non-zero basis functions:      552 in task    21
  | Maximal number of non-zero basis functions:      550 in task    22
  | Maximal number of non-zero basis functions:      558 in task    23
  | Maximal number of non-zero basis functions:      639 in task    24
  | Maximal number of non-zero basis functions:      586 in task    25
  | Maximal number of non-zero basis functions:      555 in task    26
  | Maximal number of non-zero basis functions:      561 in task    27
  | Maximal number of non-zero basis functions:      560 in task    28
  | Maximal number of non-zero basis functions:      587 in task    29
  | Maximal number of non-zero basis functions:      578 in task    30
  | Maximal number of non-zero basis functions:      574 in task    31
  | Maximal number of non-zero basis functions:      575 in task    32
  | Maximal number of non-zero basis functions:      569 in task    33
  | Maximal number of non-zero basis functions:      572 in task    34
  | Maximal number of non-zero basis functions:      550 in task    35
  | Maximal number of non-zero basis functions:      551 in task    36
  | Maximal number of non-zero basis functions:      574 in task    37
  | Maximal number of non-zero basis functions:      554 in task    38
  | Maximal number of non-zero basis functions:      559 in task    39
  Available memory per node after get_n_compute_maxes_p1 [GB]:    179.78
  Allocating        3.749 MB for KS_eigenvector_complex
  Available memory per node after allocate_matrices [GB]:    179.55
  Available memory per node after init_comm_sparse_local_matrix_scalapack [GB]:    179.49
  Integrating Hamiltonian matrix: batch-based integration.
  Time summed over all CPUs for integration: real work       23.562 s, elapsed       24.145 s
  Available memory per node after integrate hamiltonian matrix [GB]:    178.66
  Integrating overlap matrix.
  Time summed over all CPUs for integration: real work       17.926 s, elapsed       18.420 s
  Available memory per node after integrate ovlp matrix [GB]:    178.31
  Available memory per node after ASI_callbacks invoke [GB]:    178.31
  Decreasing sparse matrix size:
  | Tolerance:  0.1000E-12
  Hamiltonian matrix
  | Array has   970901 nonzero elements out of  1095008 elements
  | Sparsity factor is 0.113
  Overlap matrix
  | Array has   912127 nonzero elements out of  1095008 elements
  | Sparsity factor is 0.167
  New size of hamiltonian matrix:      970912
  Available memory per node after save_overlap_scalapack [GB]:    178.30

  Updating Kohn-Sham eigenvalues and eigenvectors using ELSI and the (modified) LAPACK eigensolver.
  Singularity check in k-point 40, task 0 (analysis for other k-points/tasks may follow below):
  Overlap matrix is not singular
  | Lowest and highest eigenvalues :  0.5961E-03,  0.8808E+01
  Finished singularity check of overlap matrix
  | Time :     0.320 s
  Starting LAPACK eigensolver
  Finished Cholesky decomposition
  | Time :     0.033 s
  Finished transformation to standard eigenproblem
  | Time :     0.058 s
  Finished solving standard eigenproblem
  | Time :     0.327 s
  Finished back-transformation of eigenvectors
  | Time :     0.018 s

  Obtaining occupation numbers and electronic chemical potential using ELSI.
  | Note that, for insulating systems, the printed 'chemical potential' value is not uniquely defined.
  | It can be anywhere in the energy gap, as long as it correctly separates occupied and unoccupied states.
  | In systems with a gap, the physically relevant chemical potential is the VBM or HOMO.

  | Chemical potential (Fermi level):    -8.18475184 eV
  Available memory per node after advance_KS_solution [GB]:    175.78
  Writing Kohn-Sham eigenvalues.
  K-point:       1 at    0.000000    0.000000    0.000000 (in units of recip. lattice)

  State    Occupation    Eigenvalue [Ha]    Eigenvalue [eV]
      1       2.00000         -10.188885         -277.25367
      2       2.00000         -10.188885         -277.25367
      3       2.00000         -10.187571         -277.21791
      4       2.00000         -10.187571         -277.21791
      5       2.00000         -10.184582         -277.13658
      6       2.00000         -10.184582         -277.13658
      7       2.00000         -10.184530         -277.13516
      8       2.00000         -10.184530         -277.13515
      9       2.00000         -10.184339         -277.12996
     10       2.00000         -10.184339         -277.12996
     11       2.00000         -10.184079         -277.12289
     12       2.00000         -10.184079         -277.12288
     13       2.00000         -10.183808         -277.11552
     14       2.00000         -10.183808         -277.11552
     15       2.00000         -10.183687         -277.11223
     16       2.00000         -10.183687         -277.11223
     17       2.00000         -10.181869         -277.06276
     18       2.00000         -10.181869         -277.06276
     19       2.00000         -10.181569         -277.05460
     20       2.00000         -10.181569         -277.05460
     21       2.00000         -10.180957         -277.03794
     22       2.00000         -10.180957         -277.03794
     23       2.00000         -10.180891         -277.03613
     24       2.00000         -10.180891         -277.03613
     25       2.00000         -10.178549         -276.97242
     26       2.00000         -10.178549         -276.97242
     27       2.00000         -10.177184         -276.93527
     28       2.00000         -10.177184         -276.93526
     29       2.00000         -10.158317         -276.42186
     30       2.00000         -10.158316         -276.42184
     31       2.00000         -10.158195         -276.41855
     32       2.00000         -10.158195         -276.41855
     33       2.00000         -10.158024         -276.41388
     34       2.00000         -10.158023         -276.41388
     35       2.00000         -10.157870         -276.40970
     36       2.00000         -10.157870         -276.40970
     37       2.00000         -10.157826         -276.40851
     38       2.00000         -10.157826         -276.40850
     39       2.00000         -10.157243         -276.39265
     40       2.00000         -10.157243         -276.39264
     41       2.00000         -10.156857         -276.38215
     42       2.00000         -10.156857         -276.38214
     43       2.00000         -10.156832         -276.38147
     44       2.00000         -10.156832         -276.38147
     45       2.00000          -1.013058          -27.56672
     46       2.00000          -1.008465          -27.44173
     47       2.00000          -1.002630          -27.28294
     48       2.00000          -0.999161          -27.18855
     49       2.00000          -0.984498          -26.78954
     50       2.00000          -0.981534          -26.70891
     51       2.00000          -0.955140          -25.99068
     52       2.00000          -0.953834          -25.95513
     53       2.00000          -0.932942          -25.38663
     54       2.00000          -0.932670          -25.37923
     55       2.00000          -0.922996          -25.11599
     56       2.00000          -0.922272          -25.09630
     57       2.00000          -0.920636          -25.05178
     58       2.00000          -0.919215          -25.01311
     59       2.00000          -0.905121          -24.62960
     60       2.00000          -0.904843          -24.62204
     61       2.00000          -0.879405          -23.92982
     62       2.00000          -0.878590          -23.90765
     63       2.00000          -0.871635          -23.71838
     64       2.00000          -0.871310          -23.70955
     65       2.00000          -0.846963          -23.04705
     66       2.00000          -0.846713          -23.04023
     67       2.00000          -0.817336          -22.24085
     68       2.00000          -0.816974          -22.23098
     69       2.00000          -0.777890          -21.16746
     70       2.00000          -0.777494          -21.15668
     71       2.00000          -0.776154          -21.12021
     72       2.00000          -0.774247          -21.06834
     73       2.00000          -0.771030          -20.98078
     74       2.00000          -0.766366          -20.85388
     75       2.00000          -0.760050          -20.68201
     76       2.00000          -0.756690          -20.59059
     77       2.00000          -0.754452          -20.52969
     78       2.00000          -0.751919          -20.46077
     79       2.00000          -0.737475          -20.06770
     80       2.00000          -0.736303          -20.03581
     81       2.00000          -0.690720          -18.79546
     82       2.00000          -0.690487          -18.78911
     83       2.00000          -0.689751          -18.76909
     84       2.00000          -0.688909          -18.74616
     85       2.00000          -0.688245          -18.72811
     86       2.00000          -0.687125          -18.69761
     87       2.00000          -0.670305          -18.23992
     88       2.00000          -0.670019          -18.23214
     89       2.00000          -0.648790          -17.65449
     90       2.00000          -0.647607          -17.62228
     91       2.00000          -0.645498          -17.56490
     92       2.00000          -0.643119          -17.50015
     93       2.00000          -0.628753          -17.10924
     94       2.00000          -0.628750          -17.10915
     95       2.00000          -0.628440          -17.10071
     96       2.00000          -0.627354          -17.07118
     97       2.00000          -0.613047          -16.68185
     98       2.00000          -0.612340          -16.66263
     99       2.00000          -0.611411          -16.63734
    100       2.00000          -0.610933          -16.62434
    101       2.00000          -0.604677          -16.45411
    102       2.00000          -0.603223          -16.41452
    103       2.00000          -0.602607          -16.39778
    104       2.00000          -0.601831          -16.37664
    105       2.00000          -0.599513          -16.31359
    106       2.00000          -0.599287          -16.30742
    107       2.00000          -0.587076          -15.97515
    108       2.00000          -0.586432          -15.95762
    109       2.00000          -0.577388          -15.71152
    110       2.00000          -0.576683          -15.69234
    111       2.00000          -0.574184          -15.62435
    112       2.00000          -0.573131          -15.59569
    113       2.00000          -0.554152          -15.07924
    114       2.00000          -0.553625          -15.06490
    115       2.00000          -0.540406          -14.70519
    116       2.00000          -0.539082          -14.66917
    117       2.00000          -0.536188          -14.59042
    118       2.00000          -0.529681          -14.41335
    119       2.00000          -0.528978          -14.39422
    120       2.00000          -0.522653          -14.22211
    121       2.00000          -0.519182          -14.12766
    122       2.00000          -0.518710          -14.11481
    123       2.00000          -0.517777          -14.08943
    124       2.00000          -0.508583          -13.83925
    125       2.00000          -0.508545          -13.83820
    126       2.00000          -0.506619          -13.78580
    127       2.00000          -0.497724          -13.54376
    128       2.00000          -0.496447          -13.50902
    129       2.00000          -0.494745          -13.46269
    130       2.00000          -0.486881          -13.24872
    131       2.00000          -0.464363          -12.63597
    132       2.00000          -0.460013          -12.51760
    133       2.00000          -0.459312          -12.49852
    134       2.00000          -0.443357          -12.06435
    135       2.00000          -0.442071          -12.02935
    136       2.00000          -0.428303          -11.65473
    137       2.00000          -0.426780          -11.61327
    138       2.00000          -0.421293          -11.46395
    139       2.00000          -0.417040          -11.34823
    140       2.00000          -0.406000          -11.04782
    141       2.00000          -0.386896          -10.52798
    142       2.00000          -0.385918          -10.50136
    143       2.00000          -0.379984          -10.33988
    144       2.00000          -0.373400          -10.16073
    145       2.00000          -0.339311           -9.23313
    146       2.00000          -0.336640           -9.16045
    147       0.00000          -0.296004           -8.05468
    148       0.00000          -0.295162           -8.03177
    149       0.00000          -0.250335           -6.81195
    150       0.00000          -0.247883           -6.74523
    151       0.00000          -0.221065           -6.01547
    152       0.00000          -0.218914           -5.95695
    153       0.00000          -0.210737           -5.73444
    154       0.00000          -0.206837           -5.62833
    155       0.00000          -0.188419           -5.12714
    156       0.00000          -0.185881           -5.05808
    157       0.00000          -0.183073           -4.98167
    158       0.00000          -0.171861           -4.67659
    159       0.00000          -0.169919           -4.62372
    160       0.00000          -0.150989           -4.10862
    161       0.00000          -0.133202           -3.62461
    162       0.00000          -0.131894           -3.58902
    163       0.00000          -0.098247           -2.67343
    164       0.00000          -0.082368           -2.24135
    165       0.00000          -0.080998           -2.20408
    166       0.00000          -0.062189           -1.69224
    167       0.00000          -0.058901           -1.60278
    168       0.00000          -0.044644           -1.21481
    169       0.00000          -0.042039           -1.14395
    170       0.00000          -0.041893           -1.13997
    171       0.00000          -0.027314           -0.74326
    172       0.00000          -0.023898           -0.65031
    173       0.00000          -0.022809           -0.62067
    174       0.00000          -0.021914           -0.59632
    175       0.00000          -0.017905           -0.48721
    176       0.00000          -0.015796           -0.42982
    177       0.00000          -0.012996           -0.35363
    178       0.00000          -0.012028           -0.32729
    179       0.00000          -0.011602           -0.31572
    180       0.00000          -0.010168           -0.27670
    181       0.00000          -0.003239           -0.08813
    182       0.00000           0.001575            0.04286
    183       0.00000           0.010073            0.27410
    184       0.00000           0.013764            0.37455
    185       0.00000           0.018738            0.50988
    186       0.00000           0.019701            0.53608
    187       0.00000           0.019810            0.53906
    188       0.00000           0.020734            0.56420
    189       0.00000           0.025833            0.70295
    190       0.00000           0.029376            0.79935
    191       0.00000           0.040463            1.10106
    192       0.00000           0.042444            1.15496
    193       0.00000           0.043999            1.19728
    194       0.00000           0.045801            1.24631
    195       0.00000           0.046616            1.26849
    196       0.00000           0.049094            1.33593
    197       0.00000           0.051263            1.39494
    198       0.00000           0.056991            1.55082
    199       0.00000           0.057047            1.55234
    200       0.00000           0.060844            1.65564
    201       0.00000           0.069337            1.88675
    202       0.00000           0.072998            1.98639
    203       0.00000           0.073098            1.98910
    204       0.00000           0.076964            2.09431
    205       0.00000           0.077903            2.11985
    206       0.00000           0.081929            2.22941
    207       0.00000           0.082898            2.25578
    208       0.00000           0.086241            2.34674
    209       0.00000           0.087976            2.39394
    210       0.00000           0.093779            2.55187
    211       0.00000           0.099888            2.71809
    212       0.00000           0.106657            2.90229
    213       0.00000           0.114183            3.10707
    214       0.00000           0.116267            3.16378
[...]
  |    8          0.580258249305273E+01          0.240943636748568E+01          0.190559732761940E+01
  |    9         -0.227513829811677E+00          0.214666597792590E-01         -0.592882012422620E+00
  |   10          0.227513829838950E+00         -0.214666598959844E-01          0.592882012895531E+00
  |   11          0.258692981695438E+00         -0.904737740083966E-03          0.573842800966486E+00
  |   12         -0.258692981768131E+00          0.904737952815821E-03         -0.573842800967030E+00
  |   13         -0.614821322359725E+01         -0.254543684667701E+01         -0.236043243276924E+01
  |   14          0.614821322342569E+01          0.254543684651449E+01          0.236043243303195E+01
  |   15          0.328509327638380E-02          0.162273165791435E+00         -0.894477845560363E+00
  |   16         -0.328509324600070E-02         -0.162273165827792E+00          0.894477845895803E+00
  |   17         -0.417547523993013E-01         -0.103206202098728E+00          0.545359754856805E+00
  |   18          0.417547524108272E-01          0.103206202132078E+00         -0.545359754697689E+00
  |   19          0.505550775290203E+01          0.205259239072053E+01          0.236728589965342E+01
  |   20         -0.505550775278390E+01         -0.205259239072156E+01         -0.236728589967577E+01
  |   21          0.610857721857441E+01          0.248401252530834E+01          0.229178693181953E+01
  |   22         -0.610857721850577E+01         -0.248401252506941E+01         -0.229178693164783E+01
  |   23         -0.624736434728595E+01          0.335894593163564E+01         -0.398076473876086E+00
  |   24          0.624736434722027E+01         -0.335894593174883E+01          0.398076473669866E+00
  |   25         -0.351836151903227E+01          0.564584188338423E+00          0.274986766954875E+01
  |   26          0.351836151915737E+01         -0.564584188397747E+00         -0.274986766919833E+01
  |   27          0.848307172071372E+00         -0.223459787979536E+01          0.380396829125987E+01
  |   28         -0.848307172333456E+00          0.223459787973831E+01         -0.380396829129698E+01
  |   29          0.540451351761740E+01         -0.335268131551212E+01          0.129344965732208E+01
  |   30         -0.540451351821328E+01          0.335268131553010E+01         -0.129344965748902E+01
  |   31         -0.426471315840215E-01         -0.885863709795067E-01          0.302199103943254E+00
  |   32          0.426471318781393E-01          0.885863710578636E-01         -0.302199103936063E+00
  |   33         -0.655283273605179E-01          0.258747285801544E+00         -0.583128293722116E+00
  |   34          0.655283275102319E-01         -0.258747285635396E+00          0.583128293656243E+00
  |   35          0.538579307816736E+01         -0.313262268570517E+01          0.875332505023601E+00
  |   36         -0.538579307809507E+01          0.313262268572700E+01         -0.875332504876366E+00
  |   37          0.854224234824089E-01         -0.498104670931876E-01          0.112029020804460E+00
  |   38         -0.854224243061513E-01          0.498104670333988E-01         -0.112029020804558E+00
  |   39         -0.150031121164822E+00          0.269442821389624E+00         -0.467596468464550E+00
  |   40          0.150031121010714E+00         -0.269442821611109E+00          0.467596468495146E+00
  |   41         -0.583831786901143E+01          0.330116714040058E+01         -0.723689018976994E+00
  |   42          0.583831786871722E+01         -0.330116714084909E+01          0.723689018780795E+00
  |   43          0.569071839996653E+01         -0.327075672073666E+01          0.677830877063711E+00
  |   44         -0.569071839975040E+01          0.327075672098284E+01         -0.677830877474202E+00
  |   45          0.654091312820586E+01         -0.387394373215950E+01          0.123233083779713E+01
  |   46         -0.654091312818691E+01          0.387394373215736E+01         -0.123233083784339E+01
  |   47          0.331006489972546E+01         -0.151682829924705E+00         -0.339285786242045E+01
  |   48         -0.331006489970699E+01          0.151682829922586E+00          0.339285786237439E+01
  |   49         -0.603258890266175E+00          0.215074025408798E+01         -0.401222587392540E+01
  |   50          0.603258890284761E+00         -0.215074025409001E+01          0.401222587387832E+01
  |   51         -0.566745826336342E+01          0.339866283013497E+01         -0.105735082560788E+01
  |   52          0.566745826338239E+01         -0.339866283013709E+01          0.105735082556173E+01
  |   53         -0.557488219530584E+01          0.327214010490078E+01         -0.105253859530318E+01
  |   54          0.557488219532457E+01         -0.327214010490202E+01          0.105253859525664E+01
  |   55          0.595416864669236E+01         -0.351174836069649E+01          0.111097340506161E+01
  |   56         -0.595416864667343E+01          0.351174836069472E+01         -0.111097340510775E+01
  |   57         -0.517718735928992E+01         -0.199023697805294E+01         -0.252196410314007E+01
  |   58          0.517718735930882E+01          0.199023697805031E+01          0.252196410309371E+01
  |   59         -0.563299632444378E+00          0.329965882489448E+00         -0.438963641500828E+01
  |   60          0.563299632462427E+00         -0.329965882492674E+00          0.438963641496247E+01
  |   61          0.332071031565575E+01          0.192902593680283E+01         -0.273601469608969E+01
  |   62         -0.332071031563744E+01         -0.192902593680543E+01          0.273601469604309E+01
  |   63          0.597780742447814E+01          0.236907684427448E+01          0.295831170130791E+01
  |   64         -0.597780742445961E+01         -0.236907684427634E+01         -0.295831170135471E+01
  |   65          0.623350764549554E+01          0.246569843743196E+01          0.305591299769639E+01
  |   66         -0.623350764547659E+01         -0.246569843743411E+01         -0.305591299774244E+01
  |   67         -0.534405977145540E+01         -0.214226616508733E+01         -0.262809728626187E+01
  |   68          0.534405977147436E+01          0.214226616508504E+01          0.262809728621579E+01
  |   69         -0.592429325072753E+01          0.355412405146900E+01         -0.111252185193273E+01
  |   70          0.592429325074633E+01         -0.355412405147119E+01          0.111252185188668E+01
  |   71         -0.620636969221746E+01         -0.242435506262981E+01         -0.303892740537836E+01
  |   72          0.620636969223592E+01          0.242435506262751E+01          0.303892740533288E+01

  ------------------------------------ 
  Start decomposition of the XC Energy 
  ------------------------------------ 
  X and C from original XC functional choice 
  Hartree-Fock Energy :          0.000000000 Ha              0.000000000 eV
  X Energy            :       -238.983120141 Ha          -6503.061571163 eV
  C Energy            :         -9.858297107 Ha           -268.257913097 eV
  XC Energy w/o HF    :       -248.841417248 Ha          -6771.319484260 eV
  Total XC Energy     :       -248.841417248 Ha          -6771.319484260 eV
  ------------------------------------ 
  LDA X and C from self-consistent density 
  X Energy LDA        :       -216.608544707 Ha          -5894.218396011 eV
  C Energy LDA        :        -18.914419595 Ha           -514.687544188 eV
  ------------------------------------ 
  End decomposition of the XC Energy 
  ------------------------------------ 

------------------------------------------------------------

  -------------------------------------------------------------------
  Writing the requested band structure output (LAPACK version):
  -------------------------------------------------------------------


  Integrating Hamiltonian matrix: batch-based integration.
  Time summed over all CPUs for integration: real work       23.119 s, elapsed       23.812 s

  Treating all    2 k-points in band plot segment #   1:

  "Band gap" along reciprocal space direction number:    1
  | Lowest unoccupied state:      -5.81263793 eV
  | Highest occupied state :      -6.53102331 eV
  | Energy difference      :       0.71838538 eV


  Treating all    2 k-points in band plot segment #   2:

  "Band gap" along reciprocal space direction number:    2
  | Lowest unoccupied state:      -5.81123021 eV
  | Highest occupied state :      -6.53089996 eV
  | Energy difference      :       0.71966975 eV


  Treating all    2 k-points in band plot segment #   3:

  "Band gap" along reciprocal space direction number:    3
  | Lowest unoccupied state:      -5.81367554 eV
  | Highest occupied state :      -6.53141605 eV
  | Energy difference      :       0.71774052 eV


  Treating all    2 k-points in band plot segment #   4:

  "Band gap" along reciprocal space direction number:    4
  | Lowest unoccupied state:      -5.81029361 eV
  | Highest occupied state :      -6.53078900 eV
  | Energy difference      :       0.72049539 eV


  Treating all    2 k-points in band plot segment #   5:

  "Band gap" along reciprocal space direction number:    5
  | Lowest unoccupied state:      -5.81345827 eV
  | Highest occupied state :      -6.53277921 eV
  | Energy difference      :       0.71932094 eV


  Treating all    2 k-points in band plot segment #   6:

  "Band gap" along reciprocal space direction number:    6
  | Lowest unoccupied state:      -5.81190816 eV
  | Highest occupied state :      -6.53165843 eV
  | Energy difference      :       0.71975027 eV


  Treating all    2 k-points in band plot segment #   7:

  "Band gap" along reciprocal space direction number:    7
  | Lowest unoccupied state:      -5.81400660 eV
  | Highest occupied state :      -6.53084768 eV
  | Energy difference      :       0.71684107 eV


  Treating all    2 k-points in band plot segment #   8:

  "Band gap" along reciprocal space direction number:    8
  | Lowest unoccupied state:      -5.80869494 eV
  | Highest occupied state :      -6.53061002 eV
  | Energy difference      :       0.72191507 eV


  Treating all    2 k-points in band plot segment #   9:

  "Band gap" along reciprocal space direction number:    9
  | Lowest unoccupied state:      -5.81421116 eV
  | Highest occupied state :      -6.53316504 eV
  | Energy difference      :       0.71895389 eV


  Treating all    2 k-points in band plot segment #  10:

  "Band gap" along reciprocal space direction number:   10
  | Lowest unoccupied state:      -5.81155869 eV
  | Highest occupied state :      -6.53122093 eV
  | Energy difference      :       0.71966224 eV


  Treating all    2 k-points in band plot segment #  11:

  "Band gap" along reciprocal space direction number:   11
  | Lowest unoccupied state:      -5.81230920 eV
  | Highest occupied state :      -6.53267102 eV
  | Energy difference      :       0.72036182 eV


  Treating all    2 k-points in band plot segment #  12:

  "Band gap" along reciprocal space direction number:   12
  | Lowest unoccupied state:      -5.81043759 eV
  | Highest occupied state :      -6.53157914 eV
  | Energy difference      :       0.72114156 eV


  Treating all    2 k-points in band plot segment #  13:

  "Band gap" along reciprocal space direction number:   13
  | Lowest unoccupied state:      -5.81498226 eV
  | Highest occupied state :      -6.53125578 eV
  | Energy difference      :       0.71627351 eV


  Treating all    2 k-points in band plot segment #  14:

  "Band gap" along reciprocal space direction number:   14
  | Lowest unoccupied state:      -5.81298230 eV
  | Highest occupied state :      -6.53197737 eV
  | Energy difference      :       0.71899507 eV


  Treating all    2 k-points in band plot segment #  15:

  "Band gap" along reciprocal space direction number:   15
  | Lowest unoccupied state:      -5.81268285 eV
  | Highest occupied state :      -6.53074372 eV
  | Energy difference      :       0.71806087 eV


  Treating all    2 k-points in band plot segment #  16:

  "Band gap" along reciprocal space direction number:   16
  | Lowest unoccupied state:      -5.80969308 eV
  | Highest occupied state :      -6.53136214 eV
  | Energy difference      :       0.72166906 eV


  Treating all    2 k-points in band plot segment #  17:

  "Band gap" along reciprocal space direction number:   17
  | Lowest unoccupied state:      -5.81489365 eV
  | Highest occupied state :      -6.53255076 eV
  | Energy difference      :       0.71765712 eV


  Treating all    2 k-points in band plot segment #  18:

  "Band gap" along reciprocal space direction number:   18
  | Lowest unoccupied state:      -5.81257108 eV
  | Highest occupied state :      -6.53347057 eV
  | Energy difference      :       0.72089950 eV


  Treating all    2 k-points in band plot segment #  19:

  "Band gap" along reciprocal space direction number:   19
  | Lowest unoccupied state:      -5.81163137 eV
  | Highest occupied state :      -6.53066852 eV
  | Energy difference      :       0.71903715 eV

  "Band gap" of total set of bands:
  | Lowest unoccupied state:      -5.81498226 eV
  | Highest occupied state :      -6.53061002 eV
  | Energy difference      :       0.71562775 eV



  Band Structure                                          :  max(cpu_time) wall_clock(cpu1)
  | Total Time                                            :          9.796            9.897
------------------------------------------------------------

------------------------------------------------------------------------------
  Final output of selected total energy values:

  The following output summarizes some interesting total energy values
  at the end of a run (AFTER all relaxation, molecular dynamics, etc.).

  | Total energy of the DFT / Hartree-Fock s.c.f. calculation      :         -46062.863183558 eV
  | Final zero-broadening corrected energy (caution - metals only) :         -46062.863183558 eV
  | For reference only, the value of 1 Hartree used in FHI-aims is :             27.211384500 eV
  | For reference only, the overall average (free atom contribution
  | + realspace contribution) of the electrostatic potential after
  | s.c.f. convergence is                                          :             -8.499511493 eV

  Before relying on these values, please be sure to understand exactly which
  total energy value is referred to by a given number. Different objects may
  all carry the same name 'total energy'. Definitions:

  Total energy of the DFT / Hartree-Fock s.c.f. calculation:
  | Note that this energy does not include ANY quantities calculated after the
  | s.c.f. cycle, in particular not ANY RPA, MP2, etc. many-body perturbation terms.

  Final zero-broadening corrected energy:
  | For metallic systems only, a broadening of the occupation numbers at the Fermi
  | level can be extrapolated back to zero broadening by an electron-gas inspired
  | formula. For all systems that are not real metals, this value can be
  | meaningless and should be avoided.

------------------------------------------------------------------------------
  Methods described in the following list of references were used in this FHI-aims run.
  If you publish the results, please make sure to cite these reference if they apply.
  FHI-aims is an academic code, and for our developers (often, Ph.D. students
  and postdocs), scientific credit in the community is essential.
  Thank you for helping us!

  For any use of FHI-aims, please cite:

    Volker Blum, Ralf Gehrke, Felix Hanke, Paula Havu, Ville Havu,
    Xinguo Ren, Karsten Reuter, and Matthias Scheffler
    'Ab initio molecular simulations with numeric atom-centered orbitals'
    Computer Physics Communications 180, 2175-2196 (2009)
    http://doi.org/10.1016/j.cpc.2009.06.022


  The provided symmetry information was generated with SPGlib:

    Atsushi Togo, Yusuke Seto, Dimitar Pashov
    SPGlib 1.7.3 obtained from http://spglib.sourceforge.net
    Copyright (C) 2008 Atsushi Togo


  The ELSI infrastructure was used in your run to solve the Kohn-Sham electronic structure.
  Please check out http://elsi-interchange.org to learn more.
  If scalability is important for your project, please acknowledge ELSI by citing:

    V. W-z. Yu, F. Corsetti, A. Garcia, W. P. Huhn, M. Jacquelin, W. Jia,
    B. Lange, L. Lin, J. Lu, W. Mi, A. Seifitokaldani, A. Vazquez-Mayagoitia,
    C. Yang, H. Yang, and V. Blum
    'ELSI: A unified software interface for Kohn-Sham electronic structure solvers'
    Computer Physics Communications 222, 267-285 (2018).
    http://doi.org/10.1016/j.cpc.2017.09.007


  For the real-space grid partitioning and parallelization used in this calculation, please cite:

    Ville Havu, Volker Blum, Paula Havu, and Matthias Scheffler,
    'Efficient O(N) integration for all-electron electronic structure calculation'
    'using numerically tabulated basis functions'
    Journal of Computational Physics 228, 8367-8379 (2009).
    http://doi.org/10.1016/j.jcp.2009.08.008

  Of course, there are many other important community references, e.g., those cited in the
  above references. Our list is limited to references that describe implementations in the
  FHI-aims code. The reason is purely practical (length of this list) - please credit others as well.

------------------------------------------------------------
          Leaving FHI-aims.
          Date     :  20240229, Time     :  180622.029

          Computational steps:
          | Number of self-consistency cycles          :           21
          | Number of SCF (re)initializations          :            1

          Detailed time accounting                     :  max(cpu_time)    wall_clock(cpu1)
          | Total time                                  :      122.367 s         122.387 s
          | Preparation time                            :        0.106 s           0.104 s
          | Boundary condition initalization            :        0.056 s           0.056 s
          | Grid partitioning                           :        0.314 s           0.313 s
          | Preloading free-atom quantities on grid     :        1.132 s           1.131 s
          | Free-atom superposition energy              :        0.159 s           0.160 s
          | Total time for integrations                 :       13.985 s          13.984 s
          | Total time for solution of K.-S. equations  :       23.060 s          23.059 s
          | Total time for density & force components   :       41.108 s          41.107 s
          | Total time for mixing & preconditioning     :       17.882 s          17.880 s
          | Total time for Hartree multipole update     :        0.064 s           0.065 s
          | Total time for Hartree multipole sum        :       10.714 s          10.717 s
          | Total time for total energy evaluation      :        0.023 s           0.026 s
          | Total time NSC force correction             :        3.710 s           3.710 s
          | Total time for scaled ZORA corrections      :        0.000 s           0.000 s
          | Total time for band structures, DOS         :        9.891 s           9.897 s

          Partial memory accounting:
          | Residual value for overall tracked memory usage across tasks:     0.000000 MB (should be 0.000000 MB)
          | Peak values for overall tracked memory usage:
          |   Minimum:       62.672 MB (on task 39 after allocating eval_tmp)
          |   Maximum:       66.461 MB (on task 12 after allocating eval_tmp)
          |   Average:       66.053 MB
          | Largest tracked array allocation:
          |   Minimum:        8.721 MB (ovlp_work on task  0)
          |   Maximum:        8.721 MB (ovlp_work on task  0)
          |   Average:        8.721 MB
          Note:  These values currently only include a subset of arrays which are explicitly tracked.
          The "true" memory usage will be greater.

          Have a nice day.
------------------------------------------------------------
