------------------------------------------------------------
          Invoking FHI-aims ...

          When using FHI-aims, please cite the following reference:

            Volker Blum, Ralf Gehrke, Felix Hanke, Paula Havu,
            Ville Havu, Xinguo Ren, Karsten Reuter, and Matthias Scheffler,
            'Ab Initio Molecular Simulations with Numeric Atom-Centered Orbitals',
            Computer Physics Communications 180, 2175-2196 (2009)

          In addition, many other developments in FHI-aims are likely important for
          your particular application. If so, please cite them. A partial list of references
          is written at the end of this file. Thank you for giving credit to the authors
          of these developments.

          For general information about FHI-aims please find us at

            https://fhi-aims.org

          Online tutorials can be found at

            https://fhi-aims-club.gitlab.io/tutorials/tutorials-overview/

          For any questions about FHI-aims, please visit our slack channel at

            https://fhi-aims.slack.com

          and our main development and support site at

            https://aims-git.rz-berlin.mpg.de .

          The latter site, in particular, has a wiki to collect information, as well
          as an issue tracker to log discussions, suggest improvements, and report issues
          or bugs. https://aims-git.rz-berlin.mpg.de is also the main development site
          of the project and all new and updated code versions can be obtained there.
          Please send an email to aims-coordinators@fhi-berlin.mpg.de and we will add
          you to these sites. They are for you and everyone is welcome there.

------------------------------------------------------------



  Date     :  20240229, Time     :  180250.795
  Time zero on CPU 1             :   0.164180000000000E+00  s.
  Internal wall clock time zero  :           478461770.795  s.

  FHI-aims created a unique identifier for this run for later identification
  aims_uuid : 4F0CB659-41E1-46D8-A429-A3242FA8CAF4

  Build configuration of the current instance of FHI-aims
  -------------------------------------------------------
  FHI-aims version      : 230629
  Commit number         : 1bccf0f48
  CMake host system     : Linux-5.14.21-150400.24.66-default
  CMake version         : 3.26.4
  Fortran compiler      : /mpcdf/soft/SLE_15/packages/x86_64/intel_oneapi/2022.3/mpi/2021.7.1/bin/mpiifort (Intel) version 2021.7.0.20221019
  Fortran compiler flags: -O3 -ip -fp-model precise
  C compiler            : /mpcdf/soft/SLE_15/packages/x86_64/intel_oneapi/2022.3/mpi/2021.7.1/bin/mpiicc (Intel) version 2021.7.0.20221019
  C compiler flags      : -O3 -ip -fp-model precise -std=gnu99
  C++ compiler          : /mpcdf/soft/SLE_15/packages/x86_64/intel/2021.7.1/bin/icpc (Intel) version 2021.7.0.20221019
  C++ compiler flags    : -O3 -ip -fp-model precise
  CUDA compiler         : nvcc
  CUDA compiler flags   : -O3 -DAdd_ -arch=sm_70 -lcublas
  HIP compiler          :
  HIP compiler flags    :
  HIP GPU arch          :
  ELPA2 kernel          : AVX512
  Using MPI
  Using ScaLAPACK
  Using LibXC
  Using i-PI
  Using RLSY
  Linking against: /mpcdf/soft/SLE_15/packages/x86_64/intel_oneapi/2022.3/mkl/latest/lib/intel64/libmkl_scalapack_lp64.so
                   /mpcdf/soft/SLE_15/packages/x86_64/intel_oneapi/2022.3/mkl/latest/lib/intel64/libmkl_blacs_intelmpi_lp64.so
                   /mpcdf/soft/SLE_15/packages/x86_64/intel_oneapi/2022.3/mkl/latest/lib/intel64/libmkl_intel_lp64.so
                   /mpcdf/soft/SLE_15/packages/x86_64/intel_oneapi/2022.3/mkl/latest/lib/intel64/libmkl_sequential.so
                   /mpcdf/soft/SLE_15/packages/x86_64/intel_oneapi/2022.3/mkl/latest/lib/intel64/libmkl_core.so
                   /mpcdf/soft/SLE_15/packages/x86_64/cuda/11.4.2/lib64/libcublas.so
                   /mpcdf/soft/SLE_15/packages/x86_64/cuda/11.4.2/lib64/libcudart.so

  Using      800 parallel tasks.
  Task        0 on host talos001 reporting.
  Task        1 on host talos001 reporting.
  Task        2 on host talos001 reporting.
  Task        3 on host talos001 reporting.
  Task        4 on host talos001 reporting.
  Task        5 on host talos001 reporting.
  Task        6 on host talos001 reporting.
  Task        7 on host talos001 reporting.
  Task        8 on host talos001 reporting.
  Task        9 on host talos001 reporting.
  Task       10 on host talos001 reporting.
  Task       11 on host talos001 reporting.
  Task       12 on host talos001 reporting.
  Task       13 on host talos001 reporting.
  Task       14 on host talos001 reporting.
  Task       15 on host talos001 reporting.
  Task       16 on host talos001 reporting.
  Task       17 on host talos001 reporting.
  Task       18 on host talos001 reporting.
  Task       19 on host talos001 reporting.
  Task       20 on host talos001 reporting.
  Task       21 on host talos001 reporting.
  Task       22 on host talos001 reporting.
  Task       23 on host talos001 reporting.
  Task       24 on host talos001 reporting.
  Task       25 on host talos001 reporting.
  Task       26 on host talos001 reporting.
  Task       27 on host talos001 reporting.
  Task       28 on host talos001 reporting.
  Task       29 on host talos001 reporting.
  Task       30 on host talos001 reporting.
  Task       31 on host talos001 reporting.
  Task       32 on host talos001 reporting.
  Task       33 on host talos001 reporting.
  Task       34 on host talos001 reporting.
  Task       35 on host talos001 reporting.
  Task       36 on host talos001 reporting.
  Task       37 on host talos001 reporting.
  Task       38 on host talos001 reporting.
  Task       39 on host talos001 reporting.
  Task       40 on host talos002 reporting.
  Task       41 on host talos002 reporting.
  Task       42 on host talos002 reporting.
  Task       43 on host talos002 reporting.
  Task       44 on host talos002 reporting.
  Task       45 on host talos002 reporting.
  Task       46 on host talos002 reporting.
  Task       47 on host talos002 reporting.
  Task       48 on host talos002 reporting.
  Task       49 on host talos002 reporting.
  Task       50 on host talos002 reporting.
  Task       51 on host talos002 reporting.
  Task       52 on host talos002 reporting.
  Task       53 on host talos002 reporting.
  Task       54 on host talos002 reporting.
  Task       55 on host talos002 reporting.
  Task       56 on host talos002 reporting.
  Task       57 on host talos002 reporting.
  Task       58 on host talos002 reporting.
  Task       59 on host talos002 reporting.
  Task       60 on host talos002 reporting.
  Task       61 on host talos002 reporting.
  Task       62 on host talos002 reporting.
  Task       63 on host talos002 reporting.
  Task       64 on host talos002 reporting.
  Task       65 on host talos002 reporting.
  Task       66 on host talos002 reporting.
  Task       67 on host talos002 reporting.
  Task       68 on host talos002 reporting.
  Task       69 on host talos002 reporting.
  Task       70 on host talos002 reporting.
  Task       71 on host talos002 reporting.
  Task       72 on host talos002 reporting.
  Task       73 on host talos002 reporting.
  Task       74 on host talos002 reporting.
  Task       75 on host talos002 reporting.
  Task       76 on host talos002 reporting.
  Task       77 on host talos002 reporting.
  Task       78 on host talos002 reporting.
  Task       79 on host talos002 reporting.
  Task       80 on host talos003 reporting.
  Task       81 on host talos003 reporting.
  Task       82 on host talos003 reporting.
  Task       83 on host talos003 reporting.
  Task       84 on host talos003 reporting.
  Task       85 on host talos003 reporting.
  Task       86 on host talos003 reporting.
  Task       87 on host talos003 reporting.
  Task       88 on host talos003 reporting.
  Task       89 on host talos003 reporting.
  Task       90 on host talos003 reporting.
  Task       91 on host talos003 reporting.
  Task       92 on host talos003 reporting.
  Task       93 on host talos003 reporting.
  Task       94 on host talos003 reporting.
  Task       95 on host talos003 reporting.
  Task       96 on host talos003 reporting.
  Task       97 on host talos003 reporting.
  Task       98 on host talos003 reporting.
  Task       99 on host talos003 reporting.
  Task      100 on host talos003 reporting.
  Task      101 on host talos003 reporting.
  Task      102 on host talos003 reporting.
  Task      103 on host talos003 reporting.
  Task      104 on host talos003 reporting.
  Task      105 on host talos003 reporting.
  Task      106 on host talos003 reporting.
  Task      107 on host talos003 reporting.
  Task      108 on host talos003 reporting.
  Task      109 on host talos003 reporting.
  Task      110 on host talos003 reporting.
  Task      111 on host talos003 reporting.
  Task      112 on host talos003 reporting.
  Task      113 on host talos003 reporting.
  Task      114 on host talos003 reporting.
  Task      115 on host talos003 reporting.
  Task      116 on host talos003 reporting.
  Task      117 on host talos003 reporting.
  Task      118 on host talos003 reporting.
  Task      119 on host talos003 reporting.
  Task      120 on host talos004 reporting.
  Task      121 on host talos004 reporting.
  Task      122 on host talos004 reporting.
  Task      123 on host talos004 reporting.
  Task      124 on host talos004 reporting.
  Task      125 on host talos004 reporting.
  Task      126 on host talos004 reporting.
  Task      127 on host talos004 reporting.
  Task      128 on host talos004 reporting.
  Task      129 on host talos004 reporting.
  Task      130 on host talos004 reporting.
  Task      131 on host talos004 reporting.
  Task      132 on host talos004 reporting.
  Task      133 on host talos004 reporting.
  Task      134 on host talos004 reporting.
  Task      135 on host talos004 reporting.
  Task      136 on host talos004 reporting.
  Task      137 on host talos004 reporting.
  Task      138 on host talos004 reporting.
  Task      139 on host talos004 reporting.
  Task      140 on host talos004 reporting.
  Task      141 on host talos004 reporting.
  Task      142 on host talos004 reporting.
  Task      143 on host talos004 reporting.
  Task      144 on host talos004 reporting.
  Task      145 on host talos004 reporting.
  Task      146 on host talos004 reporting.
  Task      147 on host talos004 reporting.
  Task      148 on host talos004 reporting.
  Task      149 on host talos004 reporting.
  Task      150 on host talos004 reporting.
  Task      151 on host talos004 reporting.
  Task      152 on host talos004 reporting.
  Task      153 on host talos004 reporting.
  Task      154 on host talos004 reporting.
  Task      155 on host talos004 reporting.
  Task      156 on host talos004 reporting.
  Task      157 on host talos004 reporting.
  Task      158 on host talos004 reporting.
  Task      159 on host talos004 reporting.
  Task      160 on host talos005 reporting.
  Task      161 on host talos005 reporting.
  Task      162 on host talos005 reporting.
  Task      163 on host talos005 reporting.
  Task      164 on host talos005 reporting.
  Task      165 on host talos005 reporting.
  Task      166 on host talos005 reporting.
  Task      167 on host talos005 reporting.
  Task      168 on host talos005 reporting.
  Task      169 on host talos005 reporting.
  Task      170 on host talos005 reporting.
  Task      171 on host talos005 reporting.
  Task      172 on host talos005 reporting.
  Task      173 on host talos005 reporting.
  Task      174 on host talos005 reporting.
  Task      175 on host talos005 reporting.
  Task      176 on host talos005 reporting.
  Task      177 on host talos005 reporting.
  Task      178 on host talos005 reporting.
  Task      179 on host talos005 reporting.
  Task      180 on host talos005 reporting.
  Task      181 on host talos005 reporting.
  Task      182 on host talos005 reporting.
  Task      183 on host talos005 reporting.
  Task      184 on host talos005 reporting.
  Task      185 on host talos005 reporting.
  Task      186 on host talos005 reporting.
  Task      187 on host talos005 reporting.
  Task      188 on host talos005 reporting.
  Task      189 on host talos005 reporting.
  Task      190 on host talos005 reporting.
  Task      191 on host talos005 reporting.
  Task      192 on host talos005 reporting.
  Task      193 on host talos005 reporting.
  Task      194 on host talos005 reporting.
  Task      195 on host talos005 reporting.
  Task      196 on host talos005 reporting.
  Task      197 on host talos005 reporting.
  Task      198 on host talos005 reporting.
  Task      199 on host talos005 reporting.
  Task      200 on host talos006 reporting.
  Task      201 on host talos006 reporting.
  Task      202 on host talos006 reporting.
  Task      203 on host talos006 reporting.
  Task      204 on host talos006 reporting.
  Task      205 on host talos006 reporting.
  Task      206 on host talos006 reporting.
  Task      207 on host talos006 reporting.
  Task      208 on host talos006 reporting.
  Task      209 on host talos006 reporting.
  Task      210 on host talos006 reporting.
  Task      211 on host talos006 reporting.
  Task      212 on host talos006 reporting.
  Task      213 on host talos006 reporting.
  Task      214 on host talos006 reporting.
  Task      215 on host talos006 reporting.
  Task      216 on host talos006 reporting.
  Task      217 on host talos006 reporting.
  Task      218 on host talos006 reporting.
  Task      219 on host talos006 reporting.
  Task      220 on host talos006 reporting.
  Task      221 on host talos006 reporting.
  Task      222 on host talos006 reporting.
  Task      223 on host talos006 reporting.
  Task      224 on host talos006 reporting.
  Task      225 on host talos006 reporting.
  Task      226 on host talos006 reporting.
  Task      227 on host talos006 reporting.
  Task      228 on host talos006 reporting.
  Task      229 on host talos006 reporting.
  Task      230 on host talos006 reporting.
  Task      231 on host talos006 reporting.
  Task      232 on host talos006 reporting.
  Task      233 on host talos006 reporting.
  Task      234 on host talos006 reporting.
  Task      235 on host talos006 reporting.
  Task      236 on host talos006 reporting.
  Task      237 on host talos006 reporting.
  Task      238 on host talos006 reporting.
  Task      239 on host talos006 reporting.
  Task      240 on host talos007 reporting.
  Task      241 on host talos007 reporting.
  Task      242 on host talos007 reporting.
  Task      243 on host talos007 reporting.
  Task      244 on host talos007 reporting.
  Task      245 on host talos007 reporting.
  Task      246 on host talos007 reporting.
  Task      247 on host talos007 reporting.
  Task      248 on host talos007 reporting.
  Task      249 on host talos007 reporting.
  Task      250 on host talos007 reporting.
  Task      251 on host talos007 reporting.
  Task      252 on host talos007 reporting.
  Task      253 on host talos007 reporting.
  Task      254 on host talos007 reporting.
  Task      255 on host talos007 reporting.
  Task      256 on host talos007 reporting.
  Task      257 on host talos007 reporting.
  Task      258 on host talos007 reporting.
  Task      259 on host talos007 reporting.
  Task      260 on host talos007 reporting.
  Task      261 on host talos007 reporting.
  Task      262 on host talos007 reporting.
  Task      263 on host talos007 reporting.
  Task      264 on host talos007 reporting.
  Task      265 on host talos007 reporting.
  Task      266 on host talos007 reporting.
  Task      267 on host talos007 reporting.
  Task      268 on host talos007 reporting.
  Task      269 on host talos007 reporting.
  Task      270 on host talos007 reporting.
  Task      271 on host talos007 reporting.
  Task      272 on host talos007 reporting.
  Task      273 on host talos007 reporting.
  Task      274 on host talos007 reporting.
  Task      275 on host talos007 reporting.
  Task      276 on host talos007 reporting.
  Task      277 on host talos007 reporting.
  Task      278 on host talos007 reporting.
  Task      279 on host talos007 reporting.
  Task      280 on host talos008 reporting.
  Task      281 on host talos008 reporting.
  Task      282 on host talos008 reporting.
  Task      283 on host talos008 reporting.
  Task      284 on host talos008 reporting.
  Task      285 on host talos008 reporting.
  Task      286 on host talos008 reporting.
  Task      287 on host talos008 reporting.
  Task      288 on host talos008 reporting.
  Task      289 on host talos008 reporting.
  Task      290 on host talos008 reporting.
  Task      291 on host talos008 reporting.
  Task      292 on host talos008 reporting.
  Task      293 on host talos008 reporting.
  Task      294 on host talos008 reporting.
  Task      295 on host talos008 reporting.
  Task      296 on host talos008 reporting.
  Task      297 on host talos008 reporting.
  Task      298 on host talos008 reporting.
  Task      299 on host talos008 reporting.
  Task      300 on host talos008 reporting.
  Task      301 on host talos008 reporting.
  Task      302 on host talos008 reporting.
  Task      303 on host talos008 reporting.
  Task      304 on host talos008 reporting.
  Task      305 on host talos008 reporting.
  Task      306 on host talos008 reporting.
  Task      307 on host talos008 reporting.
  Task      308 on host talos008 reporting.
  Task      309 on host talos008 reporting.
  Task      310 on host talos008 reporting.
  Task      311 on host talos008 reporting.
  Task      312 on host talos008 reporting.
  Task      313 on host talos008 reporting.
  Task      314 on host talos008 reporting.
  Task      315 on host talos008 reporting.
  Task      316 on host talos008 reporting.
  Task      317 on host talos008 reporting.
  Task      318 on host talos008 reporting.
  Task      319 on host talos008 reporting.
  Task      320 on host talos009 reporting.
  Task      321 on host talos009 reporting.
  Task      322 on host talos009 reporting.
  Task      323 on host talos009 reporting.
  Task      324 on host talos009 reporting.
  Task      325 on host talos009 reporting.
  Task      326 on host talos009 reporting.
  Task      327 on host talos009 reporting.
  Task      328 on host talos009 reporting.
  Task      329 on host talos009 reporting.
  Task      330 on host talos009 reporting.
  Task      331 on host talos009 reporting.
  Task      332 on host talos009 reporting.
  Task      333 on host talos009 reporting.
  Task      334 on host talos009 reporting.
  Task      335 on host talos009 reporting.
  Task      336 on host talos009 reporting.
  Task      337 on host talos009 reporting.
  Task      338 on host talos009 reporting.
  Task      339 on host talos009 reporting.
  Task      340 on host talos009 reporting.
  Task      341 on host talos009 reporting.
  Task      342 on host talos009 reporting.
  Task      343 on host talos009 reporting.
  Task      344 on host talos009 reporting.
  Task      345 on host talos009 reporting.
  Task      346 on host talos009 reporting.
  Task      347 on host talos009 reporting.
  Task      348 on host talos009 reporting.
  Task      349 on host talos009 reporting.
  Task      350 on host talos009 reporting.
  Task      351 on host talos009 reporting.
  Task      352 on host talos009 reporting.
  Task      353 on host talos009 reporting.
  Task      354 on host talos009 reporting.
  Task      355 on host talos009 reporting.
  Task      356 on host talos009 reporting.
  Task      357 on host talos009 reporting.
  Task      358 on host talos009 reporting.
  Task      359 on host talos009 reporting.
  Task      360 on host talos010 reporting.
  Task      361 on host talos010 reporting.
  Task      362 on host talos010 reporting.
  Task      363 on host talos010 reporting.
  Task      364 on host talos010 reporting.
  Task      365 on host talos010 reporting.
  Task      366 on host talos010 reporting.
  Task      367 on host talos010 reporting.
  Task      368 on host talos010 reporting.
  Task      369 on host talos010 reporting.
  Task      370 on host talos010 reporting.
  Task      371 on host talos010 reporting.
  Task      372 on host talos010 reporting.
  Task      373 on host talos010 reporting.
  Task      374 on host talos010 reporting.
  Task      375 on host talos010 reporting.
  Task      376 on host talos010 reporting.
  Task      377 on host talos010 reporting.
  Task      378 on host talos010 reporting.
  Task      379 on host talos010 reporting.
  Task      380 on host talos010 reporting.
  Task      381 on host talos010 reporting.
  Task      382 on host talos010 reporting.
  Task      383 on host talos010 reporting.
  Task      384 on host talos010 reporting.
  Task      385 on host talos010 reporting.
  Task      386 on host talos010 reporting.
  Task      387 on host talos010 reporting.
  Task      388 on host talos010 reporting.
  Task      389 on host talos010 reporting.
  Task      390 on host talos010 reporting.
  Task      391 on host talos010 reporting.
  Task      392 on host talos010 reporting.
  Task      393 on host talos010 reporting.
  Task      394 on host talos010 reporting.
  Task      395 on host talos010 reporting.
  Task      396 on host talos010 reporting.
  Task      397 on host talos010 reporting.
  Task      398 on host talos010 reporting.
  Task      399 on host talos010 reporting.
  Task      400 on host talos011 reporting.
  Task      401 on host talos011 reporting.
  Task      402 on host talos011 reporting.
  Task      403 on host talos011 reporting.
  Task      404 on host talos011 reporting.
  Task      405 on host talos011 reporting.
  Task      406 on host talos011 reporting.
  Task      407 on host talos011 reporting.
  Task      408 on host talos011 reporting.
  Task      409 on host talos011 reporting.
  Task      410 on host talos011 reporting.
  Task      411 on host talos011 reporting.
  Task      412 on host talos011 reporting.
  Task      413 on host talos011 reporting.
  Task      414 on host talos011 reporting.
  Task      415 on host talos011 reporting.
  Task      416 on host talos011 reporting.
  Task      417 on host talos011 reporting.
  Task      418 on host talos011 reporting.
  Task      419 on host talos011 reporting.
  Task      420 on host talos011 reporting.
  Task      421 on host talos011 reporting.
  Task      422 on host talos011 reporting.
  Task      423 on host talos011 reporting.
  Task      424 on host talos011 reporting.
  Task      425 on host talos011 reporting.
  Task      426 on host talos011 reporting.
  Task      427 on host talos011 reporting.
  Task      428 on host talos011 reporting.
  Task      429 on host talos011 reporting.
  Task      430 on host talos011 reporting.
  Task      431 on host talos011 reporting.
  Task      432 on host talos011 reporting.
  Task      433 on host talos011 reporting.
  Task      434 on host talos011 reporting.
  Task      435 on host talos011 reporting.
  Task      436 on host talos011 reporting.
  Task      437 on host talos011 reporting.
  Task      438 on host talos011 reporting.
  Task      439 on host talos011 reporting.
  Task      440 on host talos012 reporting.
  Task      441 on host talos012 reporting.
  Task      442 on host talos012 reporting.
  Task      443 on host talos012 reporting.
  Task      444 on host talos012 reporting.
  Task      445 on host talos012 reporting.
  Task      446 on host talos012 reporting.
  Task      447 on host talos012 reporting.
  Task      448 on host talos012 reporting.
  Task      449 on host talos012 reporting.
  Task      450 on host talos012 reporting.
  Task      451 on host talos012 reporting.
  Task      452 on host talos012 reporting.
  Task      453 on host talos012 reporting.
  Task      454 on host talos012 reporting.
  Task      455 on host talos012 reporting.
  Task      456 on host talos012 reporting.
  Task      457 on host talos012 reporting.
  Task      458 on host talos012 reporting.
  Task      459 on host talos012 reporting.
  Task      460 on host talos012 reporting.
  Task      461 on host talos012 reporting.
  Task      462 on host talos012 reporting.
  Task      463 on host talos012 reporting.
  Task      464 on host talos012 reporting.
  Task      465 on host talos012 reporting.
  Task      466 on host talos012 reporting.
  Task      467 on host talos012 reporting.
  Task      468 on host talos012 reporting.
  Task      469 on host talos012 reporting.
  Task      470 on host talos012 reporting.
  Task      471 on host talos012 reporting.
  Task      472 on host talos012 reporting.
  Task      473 on host talos012 reporting.
  Task      474 on host talos012 reporting.
  Task      475 on host talos012 reporting.
  Task      476 on host talos012 reporting.
  Task      477 on host talos012 reporting.
  Task      478 on host talos012 reporting.
  Task      479 on host talos012 reporting.
  Task      480 on host talos013 reporting.
  Task      481 on host talos013 reporting.
  Task      482 on host talos013 reporting.
  Task      483 on host talos013 reporting.
  Task      484 on host talos013 reporting.
  Task      485 on host talos013 reporting.
  Task      486 on host talos013 reporting.
  Task      487 on host talos013 reporting.
  Task      488 on host talos013 reporting.
  Task      489 on host talos013 reporting.
  Task      490 on host talos013 reporting.
  Task      491 on host talos013 reporting.
  Task      492 on host talos013 reporting.
  Task      493 on host talos013 reporting.
  Task      494 on host talos013 reporting.
  Task      495 on host talos013 reporting.
  Task      496 on host talos013 reporting.
  Task      497 on host talos013 reporting.
  Task      498 on host talos013 reporting.
  Task      499 on host talos013 reporting.
  Task      500 on host talos013 reporting.
  Task      501 on host talos013 reporting.
  Task      502 on host talos013 reporting.
  Task      503 on host talos013 reporting.
  Task      504 on host talos013 reporting.
  Task      505 on host talos013 reporting.
  Task      506 on host talos013 reporting.
  Task      507 on host talos013 reporting.
  Task      508 on host talos013 reporting.
  Task      509 on host talos013 reporting.
  Task      510 on host talos013 reporting.
  Task      511 on host talos013 reporting.
  Task      512 on host talos013 reporting.
  Task      513 on host talos013 reporting.
  Task      514 on host talos013 reporting.
  Task      515 on host talos013 reporting.
  Task      516 on host talos013 reporting.
  Task      517 on host talos013 reporting.
  Task      518 on host talos013 reporting.
  Task      519 on host talos013 reporting.
  Task      520 on host talos014 reporting.
  Task      521 on host talos014 reporting.
  Task      522 on host talos014 reporting.
  Task      523 on host talos014 reporting.
  Task      524 on host talos014 reporting.
  Task      525 on host talos014 reporting.
  Task      526 on host talos014 reporting.
  Task      527 on host talos014 reporting.
  Task      528 on host talos014 reporting.
  Task      529 on host talos014 reporting.
  Task      530 on host talos014 reporting.
  Task      531 on host talos014 reporting.
  Task      532 on host talos014 reporting.
  Task      533 on host talos014 reporting.
  Task      534 on host talos014 reporting.
  Task      535 on host talos014 reporting.
  Task      536 on host talos014 reporting.
  Task      537 on host talos014 reporting.
  Task      538 on host talos014 reporting.
  Task      539 on host talos014 reporting.
  Task      540 on host talos014 reporting.
  Task      541 on host talos014 reporting.
  Task      542 on host talos014 reporting.
  Task      543 on host talos014 reporting.
  Task      544 on host talos014 reporting.
  Task      545 on host talos014 reporting.
  Task      546 on host talos014 reporting.
  Task      547 on host talos014 reporting.
  Task      548 on host talos014 reporting.
  Task      549 on host talos014 reporting.
  Task      550 on host talos014 reporting.
  Task      551 on host talos014 reporting.
  Task      552 on host talos014 reporting.
  Task      553 on host talos014 reporting.
  Task      554 on host talos014 reporting.
  Task      555 on host talos014 reporting.
  Task      556 on host talos014 reporting.
  Task      557 on host talos014 reporting.
  Task      558 on host talos014 reporting.
  Task      559 on host talos014 reporting.
  Task      560 on host talos015 reporting.
  Task      561 on host talos015 reporting.
  Task      562 on host talos015 reporting.
  Task      563 on host talos015 reporting.
  Task      564 on host talos015 reporting.
  Task      565 on host talos015 reporting.
  Task      566 on host talos015 reporting.
  Task      567 on host talos015 reporting.
  Task      568 on host talos015 reporting.
  Task      569 on host talos015 reporting.
  Task      570 on host talos015 reporting.
  Task      571 on host talos015 reporting.
  Task      572 on host talos015 reporting.
  Task      573 on host talos015 reporting.
  Task      574 on host talos015 reporting.
  Task      575 on host talos015 reporting.
  Task      576 on host talos015 reporting.
  Task      577 on host talos015 reporting.
  Task      578 on host talos015 reporting.
  Task      579 on host talos015 reporting.
  Task      580 on host talos015 reporting.
  Task      581 on host talos015 reporting.
  Task      582 on host talos015 reporting.
  Task      583 on host talos015 reporting.
  Task      584 on host talos015 reporting.
  Task      585 on host talos015 reporting.
  Task      586 on host talos015 reporting.
  Task      587 on host talos015 reporting.
  Task      588 on host talos015 reporting.
  Task      589 on host talos015 reporting.
  Task      590 on host talos015 reporting.
  Task      591 on host talos015 reporting.
  Task      592 on host talos015 reporting.
  Task      593 on host talos015 reporting.
  Task      594 on host talos015 reporting.
  Task      595 on host talos015 reporting.
  Task      596 on host talos015 reporting.
  Task      597 on host talos015 reporting.
  Task      598 on host talos015 reporting.
  Task      599 on host talos015 reporting.
  Task      600 on host talos016 reporting.
  Task      601 on host talos016 reporting.
  Task      602 on host talos016 reporting.
  Task      603 on host talos016 reporting.
  Task      604 on host talos016 reporting.
  Task      605 on host talos016 reporting.
  Task      606 on host talos016 reporting.
  Task      607 on host talos016 reporting.
  Task      608 on host talos016 reporting.
  Task      609 on host talos016 reporting.
  Task      610 on host talos016 reporting.
  Task      611 on host talos016 reporting.
  Task      612 on host talos016 reporting.
  Task      613 on host talos016 reporting.
  Task      614 on host talos016 reporting.
  Task      615 on host talos016 reporting.
  Task      616 on host talos016 reporting.
  Task      617 on host talos016 reporting.
  Task      618 on host talos016 reporting.
  Task      619 on host talos016 reporting.
  Task      620 on host talos016 reporting.
  Task      621 on host talos016 reporting.
  Task      622 on host talos016 reporting.
  Task      623 on host talos016 reporting.
  Task      624 on host talos016 reporting.
  Task      625 on host talos016 reporting.
  Task      626 on host talos016 reporting.
  Task      627 on host talos016 reporting.
  Task      628 on host talos016 reporting.
  Task      629 on host talos016 reporting.
  Task      630 on host talos016 reporting.
  Task      631 on host talos016 reporting.
  Task      632 on host talos016 reporting.
  Task      633 on host talos016 reporting.
  Task      634 on host talos016 reporting.
  Task      635 on host talos016 reporting.
  Task      636 on host talos016 reporting.
  Task      637 on host talos016 reporting.
  Task      638 on host talos016 reporting.
  Task      639 on host talos016 reporting.
  Task      640 on host talos017 reporting.
  Task      641 on host talos017 reporting.
  Task      642 on host talos017 reporting.
  Task      643 on host talos017 reporting.
  Task      644 on host talos017 reporting.
  Task      645 on host talos017 reporting.
  Task      646 on host talos017 reporting.
  Task      647 on host talos017 reporting.
  Task      648 on host talos017 reporting.
  Task      649 on host talos017 reporting.
  Task      650 on host talos017 reporting.
  Task      651 on host talos017 reporting.
  Task      652 on host talos017 reporting.
  Task      653 on host talos017 reporting.
  Task      654 on host talos017 reporting.
  Task      655 on host talos017 reporting.
  Task      656 on host talos017 reporting.
  Task      657 on host talos017 reporting.
  Task      658 on host talos017 reporting.
  Task      659 on host talos017 reporting.
  Task      660 on host talos017 reporting.
  Task      661 on host talos017 reporting.
  Task      662 on host talos017 reporting.
  Task      663 on host talos017 reporting.
  Task      664 on host talos017 reporting.
  Task      665 on host talos017 reporting.
  Task      666 on host talos017 reporting.
  Task      667 on host talos017 reporting.
  Task      668 on host talos017 reporting.
  Task      669 on host talos017 reporting.
  Task      670 on host talos017 reporting.
  Task      671 on host talos017 reporting.
  Task      672 on host talos017 reporting.
  Task      673 on host talos017 reporting.
  Task      674 on host talos017 reporting.
  Task      675 on host talos017 reporting.
  Task      676 on host talos017 reporting.
  Task      677 on host talos017 reporting.
  Task      678 on host talos017 reporting.
  Task      679 on host talos017 reporting.
  Task      680 on host talos018 reporting.
  Task      681 on host talos018 reporting.
  Task      682 on host talos018 reporting.
  Task      683 on host talos018 reporting.
  Task      684 on host talos018 reporting.
  Task      685 on host talos018 reporting.
  Task      686 on host talos018 reporting.
  Task      687 on host talos018 reporting.
  Task      688 on host talos018 reporting.
  Task      689 on host talos018 reporting.
  Task      690 on host talos018 reporting.
  Task      691 on host talos018 reporting.
  Task      692 on host talos018 reporting.
  Task      693 on host talos018 reporting.
  Task      694 on host talos018 reporting.
  Task      695 on host talos018 reporting.
  Task      696 on host talos018 reporting.
  Task      697 on host talos018 reporting.
  Task      698 on host talos018 reporting.
  Task      699 on host talos018 reporting.
  Task      700 on host talos018 reporting.
  Task      701 on host talos018 reporting.
  Task      702 on host talos018 reporting.
  Task      703 on host talos018 reporting.
  Task      704 on host talos018 reporting.
  Task      705 on host talos018 reporting.
  Task      706 on host talos018 reporting.
  Task      707 on host talos018 reporting.
  Task      708 on host talos018 reporting.
  Task      709 on host talos018 reporting.
  Task      710 on host talos018 reporting.
  Task      711 on host talos018 reporting.
  Task      712 on host talos018 reporting.
  Task      713 on host talos018 reporting.
  Task      714 on host talos018 reporting.
  Task      715 on host talos018 reporting.
  Task      716 on host talos018 reporting.
  Task      717 on host talos018 reporting.
  Task      718 on host talos018 reporting.
  Task      719 on host talos018 reporting.
  Task      720 on host talos019 reporting.
  Task      721 on host talos019 reporting.
  Task      722 on host talos019 reporting.
  Task      723 on host talos019 reporting.
  Task      724 on host talos019 reporting.
  Task      725 on host talos019 reporting.
  Task      726 on host talos019 reporting.
  Task      727 on host talos019 reporting.
  Task      728 on host talos019 reporting.
  Task      729 on host talos019 reporting.
  Task      730 on host talos019 reporting.
  Task      731 on host talos019 reporting.
  Task      732 on host talos019 reporting.
  Task      733 on host talos019 reporting.
  Task      734 on host talos019 reporting.
  Task      735 on host talos019 reporting.
  Task      736 on host talos019 reporting.
  Task      737 on host talos019 reporting.
  Task      738 on host talos019 reporting.
  Task      739 on host talos019 reporting.
  Task      740 on host talos019 reporting.
  Task      741 on host talos019 reporting.
  Task      742 on host talos019 reporting.
  Task      743 on host talos019 reporting.
  Task      744 on host talos019 reporting.
  Task      745 on host talos019 reporting.
  Task      746 on host talos019 reporting.
  Task      747 on host talos019 reporting.
  Task      748 on host talos019 reporting.
  Task      749 on host talos019 reporting.
  Task      750 on host talos019 reporting.
  Task      751 on host talos019 reporting.
  Task      752 on host talos019 reporting.
  Task      753 on host talos019 reporting.
  Task      754 on host talos019 reporting.
  Task      755 on host talos019 reporting.
  Task      756 on host talos019 reporting.
  Task      757 on host talos019 reporting.
  Task      758 on host talos019 reporting.
  Task      759 on host talos019 reporting.
  Task      760 on host talos020 reporting.
  Task      761 on host talos020 reporting.
  Task      762 on host talos020 reporting.
  Task      763 on host talos020 reporting.
  Task      764 on host talos020 reporting.
  Task      765 on host talos020 reporting.
  Task      766 on host talos020 reporting.
  Task      767 on host talos020 reporting.
  Task      768 on host talos020 reporting.
  Task      769 on host talos020 reporting.
  Task      770 on host talos020 reporting.
  Task      771 on host talos020 reporting.
  Task      772 on host talos020 reporting.
  Task      773 on host talos020 reporting.
  Task      774 on host talos020 reporting.
  Task      775 on host talos020 reporting.
  Task      776 on host talos020 reporting.
  Task      777 on host talos020 reporting.
  Task      778 on host talos020 reporting.
  Task      779 on host talos020 reporting.
  Task      780 on host talos020 reporting.
  Task      781 on host talos020 reporting.
  Task      782 on host talos020 reporting.
  Task      783 on host talos020 reporting.
  Task      784 on host talos020 reporting.
  Task      785 on host talos020 reporting.
  Task      786 on host talos020 reporting.
  Task      787 on host talos020 reporting.
  Task      788 on host talos020 reporting.
  Task      789 on host talos020 reporting.
  Task      790 on host talos020 reporting.
  Task      791 on host talos020 reporting.
  Task      792 on host talos020 reporting.
  Task      793 on host talos020 reporting.
  Task      794 on host talos020 reporting.
  Task      795 on host talos020 reporting.
  Task      796 on host talos020 reporting.
  Task      797 on host talos020 reporting.
  Task      798 on host talos020 reporting.
  Task      799 on host talos020 reporting.

  Obtaining array dimensions for all initial allocations:
  
  -----------------------------------------------------------------------
  Parsing control.in (first pass over file, find array dimensions only).
  The contents of control.in will be repeated verbatim below
  unless switched off by setting 'verbatim_writeout .false.' .
  in the first line of control.in .
  -----------------------------------------------------------------------
  
  #===============================================================================
  # Created using the Atomic Simulation Environment (ASE)
  
  # Thu Feb 29 18:01:53 2024
  
  #===============================================================================
  xc                                 pbe0
  exx_band_structure_version         1
  k_grid                             6 6 4
  sc_accuracy_rho                    1e-06
  sc_accuracy_forces                 0.0001
  relativistic                       atomic_zora scalar
  walltime                           40000.0
  sc_init_iter                       200
  output                             band   0.37500  0.50000  0.07500 0.0 0.0 0.0 2
  output                             band   0.35608  0.49773  0.07361 0.0 0.0 0.0 2
  output                             band   0.39392  0.50227  0.07639 0.0 0.0 0.0 2
  output                             band   0.37500  0.47698  0.06524 0.0 0.0 0.0 2
  output                             band   0.37500  0.52302  0.08476 0.0 0.0 0.0 2
  output                             band   0.37500  0.50000  0.03280 0.0 0.0 0.0 2
  output                             band   0.37500  0.50000  0.11720 0.0 0.0 0.0 2
  output                             band   0.35608  0.47471  0.06385 0.0 0.0 0.0 2
  output                             band   0.39392  0.52529  0.08615 0.0 0.0 0.0 2
  output                             band   0.39392  0.47926  0.06663 0.0 0.0 0.0 2
  output                             band   0.35608  0.52074  0.08337 0.0 0.0 0.0 2
  output                             band   0.35608  0.49773  0.03140 0.0 0.0 0.0 2
  output                             band   0.39392  0.50227  0.11860 0.0 0.0 0.0 2
  output                             band   0.39392  0.50227  0.03419 0.0 0.0 0.0 2
  output                             band   0.35608  0.49773  0.11581 0.0 0.0 0.0 2
  output                             band   0.37500  0.47698  0.02303 0.0 0.0 0.0 2
  output                             band   0.37500  0.52302  0.12697 0.0 0.0 0.0 2
  output                             band   0.37500  0.52302  0.04256 0.0 0.0 0.0 2
  output                             band   0.37500  0.47698  0.10744 0.0 0.0 0.0 2
  #===============================================================================
  
  ################################################################################
  #
  #  FHI-aims code project
  #  VB, Fritz-Haber Institut, 2009
  #
  #  Suggested "light" defaults for C atom (to be pasted into control.in file)
  #  Be sure to double-check any results obtained with these settings for post-processing,
  #  e.g., with the "tight" defaults and larger basis sets.
  #
  ################################################################################
    species        C
  #     global species definitions
      nucleus             6
      mass                12.0107
  #
      l_hartree           4
  #
      cut_pot             3.5  1.5  1.0
      basis_dep_cutoff    1e-4
  #
      radial_base         34 5.0
      radial_multiplier   1
      angular_grids specified
        division   0.3326   50
        division   0.5710  110
        division   0.7727  194
        division   0.8772  302
  #      division   0.9334  434
  #      division   0.9625  590
  #      division   0.9924  770
  #      division   1.0230  974
  #      division   1.4589 1202
  #     outer_grid  974
       outer_grid 302
  ################################################################################
  #
  #  Definition of "minimal" basis
  #
  ################################################################################
  #     valence basis states
      valence      2  s   2.
      valence      2  p   2.
  #     ion occupancy
      ion_occ      2  s   1.
      ion_occ      2  p   1.
  ################################################################################
  #
  #  Suggested additional basis functions. For production calculations,
  #  uncomment them one after another (the most important basis functions are
  #  listed first).
  #
  #  Constructed for dimers: 1.0 A, 1.25 A, 1.5 A, 2.0 A, 3.0 A
  #
  ################################################################################
  #  "First tier" - improvements: -1214.57 meV to -155.61 meV
       hydro 2 p 1.7
       hydro 3 d 6
       hydro 2 s 4.9
  #  "Second tier" - improvements: -67.75 meV to -5.23 meV
  #     hydro 4 f 9.8
  #     hydro 3 p 5.2
  #     hydro 3 s 4.3
  #     hydro 5 g 14.4
  #     hydro 3 d 6.2
  #  "Third tier" - improvements: -2.43 meV to -0.60 meV
  #     hydro 2 p 5.6
  #     hydro 2 s 1.4
  #     hydro 3 d 4.9
  #     hydro 4 f 11.2
  #  "Fourth tier" - improvements: -0.39 meV to -0.18 meV
  #     hydro 2 p 2.1
  #     hydro 5 g 16.4
  #     hydro 4 d 13.2
  #     hydro 3 s 13.6
  #     hydro 4 f 17.6
  #  Further basis functions - improvements: -0.08 meV and below
  #     hydro 3 s 2
  #     hydro 3 p 6
  #     hydro 4 d 20
  ################################################################################
  #
  #  FHI-aims code project
  #  VB, Fritz-Haber Institut, 2009
  #
  #  Suggested "light" defaults for H atom (to be pasted into control.in file)
  #  Be sure to double-check any results obtained with these settings for post-processing,
  #  e.g., with the "tight" defaults and larger basis sets.
  #
  ################################################################################
    species        H
  #     global species definitions
      nucleus             1
      mass                1.00794
  #
      l_hartree           4
  #
      cut_pot             3.5  1.5  1.0
      basis_dep_cutoff    1e-4
  #
      radial_base         24 5.0
      radial_multiplier   1
      angular_grids       specified
        division   0.2421   50
        division   0.3822  110
        division   0.4799  194
        division   0.5341  302
  #      division   0.5626  434
  #      division   0.5922  590
  #      division   0.6542  770
  #      division   0.6868 1202
  #      outer_grid  770
        outer_grid  302
  ################################################################################
  #
  #  Definition of "minimal" basis
  #
  ################################################################################
  #     valence basis states
      valence      1  s   1.
  #     ion occupancy
      ion_occ      1  s   0.5
  ################################################################################
  #
  #  Suggested additional basis functions. For production calculations,
  #  uncomment them one after another (the most important basis functions are
  #  listed first).
  #
  #  Basis constructed for dimers: 0.5 A, 0.7 A, 1.0 A, 1.5 A, 2.5 A
  #
  ################################################################################
  #  "First tier" - improvements: -1014.90 meV to -62.69 meV
       hydro 2 s 2.1
       hydro 2 p 3.5
  #  "Second tier" - improvements: -12.89 meV to -1.83 meV
  #     hydro 1 s 0.85
  #     hydro 2 p 3.7
  #     hydro 2 s 1.2
  #     hydro 3 d 7
  #  "Third tier" - improvements: -0.25 meV to -0.12 meV
  #     hydro 4 f 11.2
  #     hydro 3 p 4.8
  #     hydro 4 d 9
  #     hydro 3 s 3.2
  
  -----------------------------------------------------------------------
  Completed first pass over input file control.in .
  -----------------------------------------------------------------------
  
  
  -----------------------------------------------------------------------
  Parsing geometry.in (first pass over file, find array dimensions only).
  The contents of geometry.in will be repeated verbatim below
  unless switched off by setting 'verbatim_writeout .false.' .
  in the first line of geometry.in .
  -----------------------------------------------------------------------
  
  #===============================================================================
  # Created using the Atomic Simulation Environment (ASE)
  
  # Thu Feb 29 18:01:53 2024
  
  #=======================================================
  lattice_vector 6.2919999999999998 0.0000000000000000 0.0000000000000000
  lattice_vector 0.7557651540526785 7.6528724699892736 0.0000000000000000
  lattice_vector 0.4626936735250475 3.2459069680407238 14.0323465111614372
  atom_frac 0.0670000000000000 0.2699000000000000 0.1413300000000000 C
  atom_frac 0.9330000000000003 0.7301000000000002 0.8586699999999996 C
  atom_frac 0.2158000000000000 0.3662000000000000 0.0860400000000000 C
  atom_frac 0.7842000000000000 0.6337999999999999 0.9139599999999999 C
  atom_frac 0.3999000000000000 0.4101000000000000 0.1292500000000000 C
  atom_frac 0.6001000000000002 0.5899000000000009 0.8707499999999999 C
  atom_frac 0.4300000000000000 0.3565000000000000 0.2245000000000000 C
  atom_frac 0.5700000000000001 0.6435000000000000 0.7755000000000000 C
  atom_frac 0.2786000000000000 0.2547100000000000 0.2854300000000000 C
  atom_frac 0.7214000000000000 0.7452900000000000 0.7145699999999996 C
  atom_frac 0.0912000000000000 0.2111200000000002 0.2417100000000000 C
  atom_frac 0.9088000000000003 0.7888800000000009 0.7582900000000000 C
  atom_frac 0.3062000000000000 0.1996800000000000 0.3830000000000000 C
  atom_frac 0.6938000000000000 0.8003200000000009 0.6169999999999997 C
  atom_frac 0.1553900000000000 0.0990100000000000 0.4433000000000000 C
  atom_frac 0.8446100000000000 0.9009900000000011 0.5567000000000000 C
  atom_frac 0.9684000000000001 0.0554800000000000 0.3991500000000000 C
  atom_frac 0.0316000000000000 0.9445200000000010 0.6008500000000000 C
  atom_frac 0.9425000000000000 0.1125000000000001 0.2997000000000000 C
  atom_frac 0.0575000000000000 0.8875000000000001 0.7002999999999999 C
  atom_frac 0.8177700000000002 0.9561600000000001 0.4584900000000000 C
  atom_frac 0.1822300000000000 0.0438400000000001 0.5415099999999998 C
  atom_frac 0.9456999999999999 0.7095000000000007 0.1972700000000000 C
  atom_frac 0.0543000000000000 0.2904999999999999 0.8027300000000001 C
  atom_frac 0.9049000000000003 0.8289000000000002 0.1134200000000000 C
  atom_frac 0.0950999999999999 0.1710999999999999 0.8865800000000000 C
  atom_frac 0.7006000000000000 0.9305000000000000 0.0967600000000000 C
  atom_frac 0.2994000000000001 0.0695000000000001 0.9032399999999998 C
  atom_frac 0.5431000000000001 0.9075000000000006 0.1648500000000000 C
  atom_frac 0.4568999999999999 0.0925000000000002 0.8351499999999997 C
  atom_frac 0.5796000000000003 0.7817700000000000 0.2543199999999999 C
  atom_frac 0.4203999999999999 0.2182300000000000 0.7456800000000001 C
  atom_frac 0.7864700000000000 0.6795700000000001 0.2718300000000000 C
  atom_frac 0.2135300000000000 0.3204299999999998 0.7281699999999997 C
  atom_frac 0.4216000000000000 0.7547300000000000 0.3253200000000000 C
  atom_frac 0.5784000000000001 0.2452700000000001 0.6746799999999996 C
  atom_frac 0.4575500000000000 0.6287100000000000 0.4128299999999999 C
  atom_frac 0.5424500000000001 0.3712900000000002 0.5871699999999997 C
  atom_frac 0.6652900000000000 0.5259099999999999 0.4297100000000000 C
  atom_frac 0.3347100000000000 0.4740900000000002 0.5702900000000000 C
  atom_frac 0.8251000000000002 0.5558600000000001 0.3573300000000000 C
  atom_frac 0.1748999999999999 0.4441399999999999 0.6426700000000000 C
  atom_frac 0.2985300000000000 0.5996200000000000 0.4843500000000000 C
  atom_frac 0.7014700000000000 0.4003800000000000 0.5156499999999999 C
  atom_frac 0.0802000000000000 0.6430000000000002 0.2085000000000000 H
  atom_frac 0.9198000000000001 0.3570000000000005 0.7914999999999998 H
  atom_frac 0.0158000000000000 0.8454000000000000 0.0630000000000000 H
  atom_frac 0.9842000000000002 0.1546000000000000 0.9370000000000001 H
  atom_frac 0.6718000000000002 0.0170999999999999 0.0353000000000000 H
  atom_frac 0.3281999999999999 0.9829000000000002 0.9647000000000000 H
  atom_frac 0.4072999999999999 0.9761000000000006 0.1535000000000000 H
  atom_frac 0.5927000000000001 0.0238999999999999 0.8465000000000000 H
  atom_frac 0.2852000000000000 0.8227000000000000 0.3131000000000000 H
  atom_frac 0.7148000000000000 0.1773000000000000 0.6869000000000001 H
  atom_frac 0.9613000000000002 0.4891000000000000 0.3682000000000000 H
  atom_frac 0.0386999999999999 0.5109000000000002 0.6317999999999996 H
  atom_frac 0.9426000000000000 0.2419000000000000 0.1120000000000000 H
  atom_frac 0.0574000000000000 0.7581000000000011 0.8879999999999999 H
  atom_frac 0.1966000000000000 0.4055000000000001 0.0161000000000000 H
  atom_frac 0.8034000000000000 0.5945000000000003 0.9838999999999998 H
  atom_frac 0.5082000000000000 0.4785000000000000 0.0897000000000000 H
  atom_frac 0.4918000000000000 0.5215000000000004 0.9102999999999998 H
  atom_frac 0.5515000000000000 0.3858000000000000 0.2534000000000000 H
  atom_frac 0.4485000000000001 0.6142000000000002 0.7465999999999999 H
  atom_frac 0.4283000000000001 0.2296000000000000 0.4107000000000000 H
  atom_frac 0.5716999999999999 0.7704000000000000 0.5892999999999999 H
  atom_frac 0.8196000000000000 0.0821000000000000 0.2708000000000000 H
  atom_frac 0.1804000000000000 0.9178999999999999 0.7292000000000000 H
  atom_frac 0.1625000000000000 0.6669000000000004 0.4741999999999998 H
  atom_frac 0.8374999999999999 0.3331000000000004 0.5258000000000000 H
  atom_frac 0.6951000000000003 0.9270000000000000 0.4308000000000000 H
  atom_frac 0.3048999999999999 0.0730000000000000 0.5691999999999999 H
  
  -----------------------------------------------------------------------
  Completed first pass over input file geometry.in .
  -----------------------------------------------------------------------
  

  Basic array size parameters:
  | Number of species                 :        2
  | Number of atoms                   :       72
  | Number of lattice vectors         :        3
  | Max. basis fn. angular momentum   :        2
  | Max. atomic/ionic basis occupied n:        2
  | Max. number of basis fn. types    :        2
  | Max. radial fns per species/type  :        3
  | Max. logarithmic grid size        :     1277
  | Max. radial integration grid size :       34
  | Max. angular integration grid size:      302
  | Max. angular grid division number :        8
  | Radial grid for Hartree potential :     1277
  | Number of spin channels           :        1

------------------------------------------------------------
          Reading file control.in.
------------------------------------------------------------
  XC: Using hybrid-PBE0 functionals.
  Found k-point grid:         6         6         4
  Convergence accuracy of self-consistent charge density:  0.1000E-05
  Convergence accuracy of forces:  0.1000E-03
  Scalar relativistic treatment of kinetic energy: on-site free-atom approximation to ZORA.
  Requesting a walltime of    40000 seconds.
  Number of s.-c. iterations prior to a full restart of mixing :   200

  Plot band    1
  | begin  0.375000  0.500000  0.075000
  | end    0.000000  0.000000  0.000000
  | number of points:    2

  Plot band    2
  | begin  0.356080  0.497730  0.073610
  | end    0.000000  0.000000  0.000000
  | number of points:    2

  Plot band    3
  | begin  0.393920  0.502270  0.076390
  | end    0.000000  0.000000  0.000000
  | number of points:    2

  Plot band    4
  | begin  0.375000  0.476980  0.065240
  | end    0.000000  0.000000  0.000000
  | number of points:    2

  Plot band    5
  | begin  0.375000  0.523020  0.084760
  | end    0.000000  0.000000  0.000000
  | number of points:    2

  Plot band    6
  | begin  0.375000  0.500000  0.032800
  | end    0.000000  0.000000  0.000000
  | number of points:    2

  Plot band    7
  | begin  0.375000  0.500000  0.117200
  | end    0.000000  0.000000  0.000000
  | number of points:    2

  Plot band    8
  | begin  0.356080  0.474710  0.063850
  | end    0.000000  0.000000  0.000000
  | number of points:    2

  Plot band    9
  | begin  0.393920  0.525290  0.086150
  | end    0.000000  0.000000  0.000000
  | number of points:    2

  Plot band   10
  | begin  0.393920  0.479260  0.066630
  | end    0.000000  0.000000  0.000000
  | number of points:    2

  Plot band   11
  | begin  0.356080  0.520740  0.083370
  | end    0.000000  0.000000  0.000000
  | number of points:    2

  Plot band   12
  | begin  0.356080  0.497730  0.031400
  | end    0.000000  0.000000  0.000000
  | number of points:    2

  Plot band   13
  | begin  0.393920  0.502270  0.118600
  | end    0.000000  0.000000  0.000000
  | number of points:    2

  Plot band   14
  | begin  0.393920  0.502270  0.034190
  | end    0.000000  0.000000  0.000000
  | number of points:    2

  Plot band   15
  | begin  0.356080  0.497730  0.115810
  | end    0.000000  0.000000  0.000000
  | number of points:    2

  Plot band   16
  | begin  0.375000  0.476980  0.023030
  | end    0.000000  0.000000  0.000000
  | number of points:    2

  Plot band   17
  | begin  0.375000  0.523020  0.126970
  | end    0.000000  0.000000  0.000000
  | number of points:    2

  Plot band   18
  | begin  0.375000  0.523020  0.042560
  | end    0.000000  0.000000  0.000000
  | number of points:    2

  Plot band   19
  | begin  0.375000  0.476980  0.107440
  | end    0.000000  0.000000  0.000000
  | number of points:    2
 
  Reading configuration options for species C                   .
  | Found nuclear charge :   6.0000
  | Found atomic mass :    12.0107000000000      amu
  | Found l_max for Hartree potential  :   4
  | Found cutoff potl. onset [A], width [A], scale factor :    3.50000    1.50000    1.00000
  | Threshold for basis-dependent cutoff potential is   0.100000E-03
  | Found data for basic radial integration grid :    34 points, outermost radius =    5.000 A
  | Found multiplier for basic radial grid :   1
  | Found angular grid specification: user-specified.
  | Specified grid contains     5 separate shells.
  | Check grid settings after all constraints further below.
  | Found free-atom valence shell :  2 s   2.000
  | Found free-atom valence shell :  2 p   2.000
  | No ionic wave fns used. Skipping ion_occ.
  | No ionic wave fns used. Skipping ion_occ.
  | Found hydrogenic basis function :  2 p   1.700
  | Found hydrogenic basis function :  3 d   6.000
  | Found hydrogenic basis function :  2 s   4.900
  Species C                   : Missing cutoff potential type.
  Defaulting to exp(1/x)/(1-x)^2 type cutoff potential.
  Species C : No 'logarithmic' tag. Using default grid for free atom:
  | Default logarithmic grid data [bohr] : 0.1000E-03 0.1000E+03 0.1012E+01
  Species C : On-site basis accuracy parameter (for Gram-Schmidt orthonormalisation) not specified.
  Using default value basis_acc =  0.1000000E-03.
  Species C                   : Using default innermost maximum threshold i_radial=  2 for radial functions.
  Species C                   : Default cutoff onset for free atom density etc. : 0.35000000E+01 AA.
  Species C                   : Basic radial grid will be enhanced according to radial_multiplier =   1, to contain    34 grid points.
 
  Reading configuration options for species H                   .
  | Found nuclear charge :   1.0000
  | Found atomic mass :    1.00794000000000      amu
  | Found l_max for Hartree potential  :   4
  | Found cutoff potl. onset [A], width [A], scale factor :    3.50000    1.50000    1.00000
  | Threshold for basis-dependent cutoff potential is   0.100000E-03
  | Found data for basic radial integration grid :    24 points, outermost radius =    5.000 A
  | Found multiplier for basic radial grid :   1
  | Found angular grid specification: user-specified.
  | Specified grid contains     5 separate shells.
  | Check grid settings after all constraints further below.
  | Found free-atom valence shell :  1 s   1.000
  | No ionic wave fns used. Skipping ion_occ.
  | Found hydrogenic basis function :  2 s   2.100
  | Found hydrogenic basis function :  2 p   3.500
  Species H                   : Missing cutoff potential type.
  Defaulting to exp(1/x)/(1-x)^2 type cutoff potential.
  Species H : No 'logarithmic' tag. Using default grid for free atom:
  | Default logarithmic grid data [bohr] : 0.1000E-03 0.1000E+03 0.1012E+01
  Species H : On-site basis accuracy parameter (for Gram-Schmidt orthonormalisation) not specified.
  Using default value basis_acc =  0.1000000E-03.
  Species H                   : Using default innermost maximum threshold i_radial=  2 for radial functions.
  Species H                   : Default cutoff onset for free atom density etc. : 0.35000000E+01 AA.
  Species H                   : Basic radial grid will be enhanced according to radial_multiplier =   1, to contain    24 grid points.
 
  Finished reading input file 'control.in'.
 
------------------------------------------------------------


------------------------------------------------------------
          Reading geometry description geometry.in.
------------------------------------------------------------
  | The smallest distance between any two atoms is         0.94339563 AA.
  | The first atom of this pair is atom number                     23 .
  | The second atom of this pair is atom number                    45 .
  | Wigner-Seitz cell of the first atom image           0     0     0 .
  | (The Wigner-Seitz cell of the second atom is 0 0 0  by definition.)

  Symmetry information by spglib:
  | Precision set to  0.1E-04
  | Number of Operations  : 2
  | Space group           : 2
  | International         : P-1 0000000
  | Schoenflies           : Ci^1
  Input structure read successfully.
  The structure contains       72 atoms,  and a total of        292.000 electrons.

  Input geometry:
  | Unit cell:
  |        6.29200000        0.00000000        0.00000000
  |        0.75576515        7.65287247        0.00000000
  |        0.46269367        3.24590697       14.03234651
  | Atomic structure:
  |       Atom                x [A]            y [A]            z [A]
  |    1: Species C             0.69093751        2.52425431        1.98319153
  |    2: Species C             6.81952132        8.37452513       12.04915498
  |    3: Species C             1.67438496        3.08175973        1.20734309
  |    4: Species C             5.83607386        7.81701970       12.82500342
  |    5: Species C             2.88591325        3.55797648        1.81368079
  |    6: Species C             4.62454558        7.34080296       12.21866572
  |    7: Species C             3.07886501        3.45695515        3.15026179
  |    8: Species C             4.43159382        7.44182429       10.88208472
  |    9: Species C             2.07751880        2.87574237        4.00525266
  |   10: Species C             5.43294003        8.02303707       10.02709385
  |   11: Species C             0.84522523        2.40024261        3.39175848
  |   12: Species C             6.66523360        8.49853683       10.64058804
  |   13: Species C             2.25473326        2.77130794        5.37438871
  |   14: Species C             5.25572556        8.12747149        8.65795780
  |   15: Species C             1.25765429        2.19662146        6.22053921
  |   16: Species C             6.25280453        8.70215798        7.81180730
  |   17: Species C             6.31978683        1.72018513        5.60101111
  |   18: Species C             1.19067200        9.17859431        8.43133540
  |   19: Species C             6.15390287        1.83374647        4.20549425
  |   20: Species C             1.35655595        9.06503297        9.82685226
  |   21: Species C             6.08018167        8.80558643        6.43369055
  |   22: Species C             1.43027716        2.09319301        7.59865596
  |   23: Species C             6.57783536        6.07003309        2.76816100
  |   24: Species C             0.93262347        4.82874635       11.26418551
  |   25: Species C             6.37256325        6.71161676        1.59154874
  |   26: Species C             1.13789557        4.18716268       12.44079777
  |   27: Species C             5.15618492        7.43507179        1.35776985
  |   28: Species C             2.35427391        3.46370765       12.67457666
  |   29: Species C             4.17931713        7.48006953        2.31323232
  |   30: Species C             3.33114170        3.41870991       11.71911419
  |   31: Species C             4.35534998        6.80828517        3.56870636
  |   32: Species C             3.15510885        4.09049427       10.46364015
  |   33: Species C             5.58783859        6.08299744        3.81441275
  |   34: Species C             1.92262024        4.81578200       10.21793376
  |   35: Species C             3.37362934        6.83181089        4.56500297
  |   36: Species C             4.13682949        4.06696854        9.46734354
  |   37: Species C             3.54507554        6.15144522        5.79297361
  |   38: Species C             3.96538329        4.74733421        8.23937290
  |   39: Species C             4.78229323        5.41952084        6.02983962
  |   40: Species C             2.72816560        5.47925859        8.00250689
  |   41: Species C             5.77696315        5.41378563        5.01417838
  |   42: Species C             1.73349568        5.48499381        9.01816813
  |   43: Species C             2.55562834        6.16097043        6.79656703
  |   44: Species C             4.95483049        4.73780901        7.23577948
  |   45: Species H             1.08704702        5.59756860        2.92574425
  |   46: Species H             6.42341180        5.30121084       11.10660226
  |   47: Species H             0.76748716        6.67423053        0.88403783
  |   48: Species H             6.74297166        4.22454891       13.14830868
  |   49: Species H             4.25622227        0.24544464        0.49534183
  |   50: Species H             3.25423656       10.65333480       13.53700468
  |   51: Species H             3.37145745        7.96821554        2.15396519
  |   52: Species H             4.13900138        2.93056390       11.87838132
  |   53: Species H             2.56111578        7.31231165        4.39352769
  |   54: Species H             4.94934305        3.58646779        9.63881882
  |   55: Species H             6.58850815        4.93816287        5.16670999
  |   56: Species H             0.92195068        5.96061657        8.86563653
  |   57: Species H             6.16548048        2.21477143        1.57162281
  |   58: Species H             1.34497835        8.68400801       12.46072370
  |   59: Species H             1.55091934        3.15549889        0.22592078
  |   60: Species H             5.95953949        7.74328055       13.80642573
  |   61: Species H             3.60073165        3.95305733        1.25870148
  |   62: Species H             3.90972718        6.94572211       12.77364503
  |   63: Species H             3.87885877        3.77499102        3.55579661
  |   64: Species H             3.63160005        7.12378841       10.47654991
  |   65: Species H             3.05841557        3.09019351        5.76308471
  |   66: Species H             4.45204326        7.80858593        8.26926180
  |   67: Species H             5.34426897        1.50729244        3.79995944
  |   68: Species H             2.16618986        9.39148700       10.23238708
  |   69: Species H             1.74587912        6.64290973        6.65413872
  |   70: Species H             5.76457971        4.25586970        7.37820780
  |   71: Species H             5.27349193        8.49254950        6.04513488
  |   72: Species H             2.23696690        2.40622994        7.98721163

  Lattice parameters for 3D lattice (in Angstroms) :     6.292000    7.690100   14.410300
  Angle(s) between unit vectors (in degrees)       :    76.861000   88.160000   84.360000


  Quantities derived from the lattice vectors (in Angstrom^-1):
  | Reciprocal lattice vector 1:  0.998599 -0.098617 -0.010115
  | Reciprocal lattice vector 2:  0.000000  0.821023 -0.189916
  | Reciprocal lattice vector 3:  0.000000  0.000000  0.447764
  | Unit cell volume                               :   0.675684E+03  Angstrom^3

  Fractional coordinates:
                         L1                L2                L3
       atom_frac         0.06700000        0.26990000        0.14133000  C
       atom_frac         0.93300000        0.73010000        0.85867000  C
       atom_frac         0.21580000        0.36620000        0.08604000  C
       atom_frac         0.78420000        0.63380000        0.91396000  C
       atom_frac         0.39990000        0.41010000        0.12925000  C
       atom_frac         0.60010000        0.58990000        0.87075000  C
       atom_frac         0.43000000        0.35650000        0.22450000  C
       atom_frac         0.57000000        0.64350000        0.77550000  C
       atom_frac         0.27860000        0.25471000        0.28543000  C
       atom_frac         0.72140000        0.74529000        0.71457000  C
       atom_frac         0.09120000        0.21112000        0.24171000  C
       atom_frac         0.90880000        0.78888000        0.75829000  C
       atom_frac         0.30620000        0.19968000        0.38300000  C
       atom_frac         0.69380000        0.80032000        0.61700000  C
       atom_frac         0.15539000        0.09901000        0.44330000  C
       atom_frac         0.84461000        0.90099000        0.55670000  C
       atom_frac         0.96840000        0.05548000        0.39915000  C
       atom_frac         0.03160000        0.94452000        0.60085000  C
       atom_frac         0.94250000        0.11250000        0.29970000  C
       atom_frac         0.05750000        0.88750000        0.70030000  C
       atom_frac         0.81777000        0.95616000        0.45849000  C
       atom_frac         0.18223000        0.04384000        0.54151000  C
       atom_frac         0.94570000        0.70950000        0.19727000  C
       atom_frac         0.05430000        0.29050000        0.80273000  C
       atom_frac         0.90490000        0.82890000        0.11342000  C
       atom_frac         0.09510000        0.17110000        0.88658000  C
       atom_frac         0.70060000        0.93050000        0.09676000  C
       atom_frac         0.29940000        0.06950000        0.90324000  C
       atom_frac         0.54310000        0.90750000        0.16485000  C
       atom_frac         0.45690000        0.09250000        0.83515000  C
       atom_frac         0.57960000        0.78177000        0.25432000  C
       atom_frac         0.42040000        0.21823000        0.74568000  C
       atom_frac         0.78647000        0.67957000        0.27183000  C
       atom_frac         0.21353000        0.32043000        0.72817000  C
       atom_frac         0.42160000        0.75473000        0.32532000  C
       atom_frac         0.57840000        0.24527000        0.67468000  C
       atom_frac         0.45755000        0.62871000        0.41283000  C
       atom_frac         0.54245000        0.37129000        0.58717000  C
       atom_frac         0.66529000        0.52591000        0.42971000  C
       atom_frac         0.33471000        0.47409000        0.57029000  C
       atom_frac         0.82510000        0.55586000        0.35733000  C
       atom_frac         0.17490000        0.44414000        0.64267000  C
       atom_frac         0.29853000        0.59962000        0.48435000  C
       atom_frac         0.70147000        0.40038000        0.51565000  C
       atom_frac         0.08020000        0.64300000        0.20850000  H
       atom_frac         0.91980000        0.35700000        0.79150000  H
       atom_frac         0.01580000        0.84540000        0.06300000  H
       atom_frac         0.98420000        0.15460000        0.93700000  H
       atom_frac         0.67180000        0.01710000        0.03530000  H
       atom_frac         0.32820000        0.98290000        0.96470000  H
       atom_frac         0.40730000        0.97610000        0.15350000  H
       atom_frac         0.59270000        0.02390000        0.84650000  H
       atom_frac         0.28520000        0.82270000        0.31310000  H
       atom_frac         0.71480000        0.17730000        0.68690000  H
       atom_frac         0.96130000        0.48910000        0.36820000  H
       atom_frac         0.03870000        0.51090000        0.63180000  H
       atom_frac         0.94260000        0.24190000        0.11200000  H
       atom_frac         0.05740000        0.75810000        0.88800000  H
       atom_frac         0.19660000        0.40550000        0.01610000  H
       atom_frac         0.80340000        0.59450000        0.98390000  H
       atom_frac         0.50820000        0.47850000        0.08970000  H
       atom_frac         0.49180000        0.52150000        0.91030000  H
       atom_frac         0.55150000        0.38580000        0.25340000  H
       atom_frac         0.44850000        0.61420000        0.74660000  H
       atom_frac         0.42830000        0.22960000        0.41070000  H
       atom_frac         0.57170000        0.77040000        0.58930000  H
       atom_frac         0.81960000        0.08210000        0.27080000  H
       atom_frac         0.18040000        0.91790000        0.72920000  H
       atom_frac         0.16250000        0.66690000        0.47420000  H
       atom_frac         0.83750000        0.33310000        0.52580000  H
       atom_frac         0.69510000        0.92700000        0.43080000  H
       atom_frac         0.30490000        0.07300000        0.56920000  H

 
  Finished reading input file 'geometry.in'.
 

 
  Consistency checks for stacksize environment parameter are next.
 
  | Maximum stacksize for task 0: unlimited
  | Maximum stacksize for task 1: unlimited
  | Maximum stacksize for task 2: unlimited
  | Maximum stacksize for task 3: unlimited
  | Maximum stacksize for task 4: unlimited
  | Maximum stacksize for task 5: unlimited
  | Maximum stacksize for task 6: unlimited
  | Maximum stacksize for task 7: unlimited
  | Maximum stacksize for task 8: unlimited
  | Maximum stacksize for task 9: unlimited
  | Maximum stacksize for task 10: unlimited
  | Maximum stacksize for task 11: unlimited
  | Maximum stacksize for task 12: unlimited
  | Maximum stacksize for task 13: unlimited
  | Maximum stacksize for task 14: unlimited
  | Maximum stacksize for task 15: unlimited
  | Maximum stacksize for task 16: unlimited
  | Maximum stacksize for task 17: unlimited
  | Maximum stacksize for task 18: unlimited
  | Maximum stacksize for task 19: unlimited
  | Maximum stacksize for task 20: unlimited
  | Maximum stacksize for task 21: unlimited
  | Maximum stacksize for task 22: unlimited
  | Maximum stacksize for task 23: unlimited
  | Maximum stacksize for task 24: unlimited
  | Maximum stacksize for task 25: unlimited
  | Maximum stacksize for task 26: unlimited
  | Maximum stacksize for task 27: unlimited
  | Maximum stacksize for task 28: unlimited
  | Maximum stacksize for task 29: unlimited
  | Maximum stacksize for task 30: unlimited
  | Maximum stacksize for task 31: unlimited
  | Maximum stacksize for task 32: unlimited
  | Maximum stacksize for task 33: unlimited
  | Maximum stacksize for task 34: unlimited
  | Maximum stacksize for task 35: unlimited
  | Maximum stacksize for task 36: unlimited
  | Maximum stacksize for task 37: unlimited
  | Maximum stacksize for task 38: unlimited
  | Maximum stacksize for task 39: unlimited
  | Maximum stacksize for task 40: unlimited
  | Maximum stacksize for task 41: unlimited
  | Maximum stacksize for task 42: unlimited
  | Maximum stacksize for task 43: unlimited
  | Maximum stacksize for task 44: unlimited
  | Maximum stacksize for task 45: unlimited
  | Maximum stacksize for task 46: unlimited
  | Maximum stacksize for task 47: unlimited
  | Maximum stacksize for task 48: unlimited
  | Maximum stacksize for task 49: unlimited
  | Maximum stacksize for task 50: unlimited
  | Maximum stacksize for task 51: unlimited
  | Maximum stacksize for task 52: unlimited
  | Maximum stacksize for task 53: unlimited
  | Maximum stacksize for task 54: unlimited
  | Maximum stacksize for task 55: unlimited
  | Maximum stacksize for task 56: unlimited
  | Maximum stacksize for task 57: unlimited
  | Maximum stacksize for task 58: unlimited
  | Maximum stacksize for task 59: unlimited
  | Maximum stacksize for task 60: unlimited
  | Maximum stacksize for task 61: unlimited
  | Maximum stacksize for task 62: unlimited
  | Maximum stacksize for task 63: unlimited
  | Maximum stacksize for task 64: unlimited
  | Maximum stacksize for task 65: unlimited
  | Maximum stacksize for task 66: unlimited
  | Maximum stacksize for task 67: unlimited
  | Maximum stacksize for task 68: unlimited
  | Maximum stacksize for task 69: unlimited
  | Maximum stacksize for task 70: unlimited
  | Maximum stacksize for task 71: unlimited
  | Maximum stacksize for task 72: unlimited
  | Maximum stacksize for task 73: unlimited
  | Maximum stacksize for task 74: unlimited
  | Maximum stacksize for task 75: unlimited
  | Maximum stacksize for task 76: unlimited
  | Maximum stacksize for task 77: unlimited
  | Maximum stacksize for task 78: unlimited
  | Maximum stacksize for task 79: unlimited
  | Maximum stacksize for task 80: unlimited
  | Maximum stacksize for task 81: unlimited
  | Maximum stacksize for task 82: unlimited
  | Maximum stacksize for task 83: unlimited
  | Maximum stacksize for task 84: unlimited
  | Maximum stacksize for task 85: unlimited
  | Maximum stacksize for task 86: unlimited
  | Maximum stacksize for task 87: unlimited
  | Maximum stacksize for task 88: unlimited
  | Maximum stacksize for task 89: unlimited
  | Maximum stacksize for task 90: unlimited
  | Maximum stacksize for task 91: unlimited
  | Maximum stacksize for task 92: unlimited
  | Maximum stacksize for task 93: unlimited
  | Maximum stacksize for task 94: unlimited
  | Maximum stacksize for task 95: unlimited
  | Maximum stacksize for task 96: unlimited
  | Maximum stacksize for task 97: unlimited
  | Maximum stacksize for task 98: unlimited
  | Maximum stacksize for task 99: unlimited
  | Maximum stacksize for task 100: unlimited
  | Maximum stacksize for task 101: unlimited
  | Maximum stacksize for task 102: unlimited
  | Maximum stacksize for task 103: unlimited
  | Maximum stacksize for task 104: unlimited
  | Maximum stacksize for task 105: unlimited
  | Maximum stacksize for task 106: unlimited
  | Maximum stacksize for task 107: unlimited
  | Maximum stacksize for task 108: unlimited
  | Maximum stacksize for task 109: unlimited
  | Maximum stacksize for task 110: unlimited
  | Maximum stacksize for task 111: unlimited
  | Maximum stacksize for task 112: unlimited
  | Maximum stacksize for task 113: unlimited
  | Maximum stacksize for task 114: unlimited
  | Maximum stacksize for task 115: unlimited
  | Maximum stacksize for task 116: unlimited
  | Maximum stacksize for task 117: unlimited
  | Maximum stacksize for task 118: unlimited
  | Maximum stacksize for task 119: unlimited
  | Maximum stacksize for task 120: unlimited
  | Maximum stacksize for task 121: unlimited
  | Maximum stacksize for task 122: unlimited
  | Maximum stacksize for task 123: unlimited
  | Maximum stacksize for task 124: unlimited
  | Maximum stacksize for task 125: unlimited
  | Maximum stacksize for task 126: unlimited
  | Maximum stacksize for task 127: unlimited
  | Maximum stacksize for task 128: unlimited
  | Maximum stacksize for task 129: unlimited
  | Maximum stacksize for task 130: unlimited
  | Maximum stacksize for task 131: unlimited
  | Maximum stacksize for task 132: unlimited
  | Maximum stacksize for task 133: unlimited
  | Maximum stacksize for task 134: unlimited
  | Maximum stacksize for task 135: unlimited
  | Maximum stacksize for task 136: unlimited
  | Maximum stacksize for task 137: unlimited
  | Maximum stacksize for task 138: unlimited
  | Maximum stacksize for task 139: unlimited
  | Maximum stacksize for task 140: unlimited
  | Maximum stacksize for task 141: unlimited
  | Maximum stacksize for task 142: unlimited
  | Maximum stacksize for task 143: unlimited
  | Maximum stacksize for task 144: unlimited
  | Maximum stacksize for task 145: unlimited
  | Maximum stacksize for task 146: unlimited
  | Maximum stacksize for task 147: unlimited
[...]
  Task     35: my_n_atom_pairs:    764
  Task     36: my_n_atom_pairs:    760
  Task     37: my_n_atom_pairs:    760
  Task     38: my_n_atom_pairs:    779
  Task     39: my_n_atom_pairs:    779
  Task      0: my_n_atom_pairs:    763
  Task      1: my_n_atom_pairs:    763
  Task      2: my_n_atom_pairs:    392
  Task      3: my_n_atom_pairs:    392
  Task      4: my_n_atom_pairs:    767
  Task      5: my_n_atom_pairs:    767
  Task      6: my_n_atom_pairs:    765
  Task      7: my_n_atom_pairs:    765
  Task      8: my_n_atom_pairs:    764
  Task      9: my_n_atom_pairs:    764
  Task     10: my_n_atom_pairs:    391
  Task     11: my_n_atom_pairs:    391
  Task     12: my_n_atom_pairs:    758
  Task     13: my_n_atom_pairs:    758
  Task     14: my_n_atom_pairs:    758
  Task     15: my_n_atom_pairs:    758
  Task     16: my_n_atom_pairs:    761
  Task     17: my_n_atom_pairs:    761
  Task     18: my_n_atom_pairs:    386
  Task     19: my_n_atom_pairs:    386
  Task     20: my_n_atom_pairs:    757
  Task     21: my_n_atom_pairs:    757
  Task     22: my_n_atom_pairs:    760
  Task     23: my_n_atom_pairs:    760
  Task     24: my_n_atom_pairs:    775
  Task     25: my_n_atom_pairs:    775
  Task     26: my_n_atom_pairs:    769
  Task     27: my_n_atom_pairs:    769
  Task     28: my_n_atom_pairs:    767
  Task     29: my_n_atom_pairs:    767
  Task     30: my_n_atom_pairs:    391
  Task     31: my_n_atom_pairs:    391
  Task     32: my_n_atom_pairs:    767
  Task     33: my_n_atom_pairs:    767
  Task     34: my_n_atom_pairs:    764
  Task     35: my_n_atom_pairs:    764
  Task     36: my_n_atom_pairs:    760
  Task     37: my_n_atom_pairs:    760
  Task     38: my_n_atom_pairs:    779
  Task     39: my_n_atom_pairs:    779
  Task      0: my_n_atom_pairs:    763
  Task      1: my_n_atom_pairs:    763
  Task      2: my_n_atom_pairs:    392
  Task      3: my_n_atom_pairs:    392
  Task      4: my_n_atom_pairs:    767
  Task      5: my_n_atom_pairs:    767
  Task      6: my_n_atom_pairs:    765
  Task      7: my_n_atom_pairs:    765
  Task      8: my_n_atom_pairs:    764
  Task      9: my_n_atom_pairs:    764
  Task     10: my_n_atom_pairs:    391
  Task     11: my_n_atom_pairs:    391
  Task     12: my_n_atom_pairs:    758
  Task     13: my_n_atom_pairs:    758
  Task     14: my_n_atom_pairs:    758
  Task     15: my_n_atom_pairs:    758
  Task     16: my_n_atom_pairs:    761
  Task     17: my_n_atom_pairs:    761
  Task     18: my_n_atom_pairs:    386
  Task     19: my_n_atom_pairs:    386
  Task     20: my_n_atom_pairs:    757
  Task     21: my_n_atom_pairs:    757
  Task     22: my_n_atom_pairs:    760
  Task     23: my_n_atom_pairs:    760
  Task     24: my_n_atom_pairs:    775
  Task     25: my_n_atom_pairs:    775
  Task     26: my_n_atom_pairs:    769
  Task     27: my_n_atom_pairs:    769
  Task     28: my_n_atom_pairs:    767
  Task     29: my_n_atom_pairs:    767
  Task     30: my_n_atom_pairs:    391
  Task     31: my_n_atom_pairs:    391
  Task     32: my_n_atom_pairs:    767
  Task     33: my_n_atom_pairs:    767
  Task     34: my_n_atom_pairs:    764
  Task     35: my_n_atom_pairs:    764
  Task     36: my_n_atom_pairs:    760
  Task     37: my_n_atom_pairs:    760
  Task     38: my_n_atom_pairs:    779
  Task     39: my_n_atom_pairs:    779
  Task      0: my_n_atom_pairs:    763
  Task      1: my_n_atom_pairs:    763
  Task      2: my_n_atom_pairs:    392
  Task      3: my_n_atom_pairs:    392
  Task      4: my_n_atom_pairs:    767
  Task      5: my_n_atom_pairs:    767
  Task      6: my_n_atom_pairs:    765
  Task      7: my_n_atom_pairs:    765
  Task      8: my_n_atom_pairs:    764
  Task      9: my_n_atom_pairs:    764
  Task     10: my_n_atom_pairs:    391
  Task     11: my_n_atom_pairs:    391
  Task     12: my_n_atom_pairs:    758
  Task     13: my_n_atom_pairs:    758
  Task     14: my_n_atom_pairs:    758
  Task     15: my_n_atom_pairs:    758
  Task     16: my_n_atom_pairs:    761
  Task     17: my_n_atom_pairs:    761
  Task     18: my_n_atom_pairs:    386
  Task     19: my_n_atom_pairs:    386
  Task     20: my_n_atom_pairs:    757
  Task     21: my_n_atom_pairs:    757
  Task     22: my_n_atom_pairs:    760
  Task     23: my_n_atom_pairs:    760
  Task     24: my_n_atom_pairs:    775
  Task     25: my_n_atom_pairs:    775
  Task     26: my_n_atom_pairs:    769
  Task     27: my_n_atom_pairs:    769
  Task     28: my_n_atom_pairs:    767
  Task     29: my_n_atom_pairs:    767
  Task     30: my_n_atom_pairs:    391
  Task     31: my_n_atom_pairs:    391
  Task     32: my_n_atom_pairs:    767
  Task     33: my_n_atom_pairs:    767
  Task     34: my_n_atom_pairs:    764
  Task     35: my_n_atom_pairs:    764
  Task     36: my_n_atom_pairs:    760
  Task     37: my_n_atom_pairs:    760
  Task     38: my_n_atom_pairs:    779
  Task     39: my_n_atom_pairs:    779
  Task      0: my_n_atom_pairs:    763
  Task      1: my_n_atom_pairs:    763
  Task      2: my_n_atom_pairs:    392
  Task      3: my_n_atom_pairs:    392
  Task      4: my_n_atom_pairs:    767
  Task      5: my_n_atom_pairs:    767
  Task      6: my_n_atom_pairs:    765
  Task      7: my_n_atom_pairs:    765
  Task      8: my_n_atom_pairs:    764
  Task      9: my_n_atom_pairs:    764
  Task     10: my_n_atom_pairs:    391
  Task     11: my_n_atom_pairs:    391
  Task     12: my_n_atom_pairs:    758
  Task     13: my_n_atom_pairs:    758
  Task     14: my_n_atom_pairs:    758
  Task     15: my_n_atom_pairs:    758
  Task     16: my_n_atom_pairs:    761
  Task     17: my_n_atom_pairs:    761
  Task     18: my_n_atom_pairs:    386
  Task     19: my_n_atom_pairs:    386
  Task     20: my_n_atom_pairs:    757
  Task     21: my_n_atom_pairs:    757
  Task     22: my_n_atom_pairs:    760
  Task     23: my_n_atom_pairs:    760
  Task     24: my_n_atom_pairs:    775
  Task     25: my_n_atom_pairs:    775
  Task     26: my_n_atom_pairs:    769
  Task     27: my_n_atom_pairs:    769
  Task     28: my_n_atom_pairs:    767
  Task     29: my_n_atom_pairs:    767
  Task     30: my_n_atom_pairs:    391
  Task     31: my_n_atom_pairs:    391
  Task     32: my_n_atom_pairs:    767
  Task     33: my_n_atom_pairs:    767
  Task     34: my_n_atom_pairs:    764
  Task     35: my_n_atom_pairs:    764
  Task     36: my_n_atom_pairs:    760
  Task     37: my_n_atom_pairs:    760
  Task     38: my_n_atom_pairs:    779
  Task     39: my_n_atom_pairs:    779
  Task      0: my_n_atom_pairs:    763
  Task      1: my_n_atom_pairs:    763
  Task      2: my_n_atom_pairs:    392
  Task      3: my_n_atom_pairs:    392
  Task      4: my_n_atom_pairs:    767
  Task      5: my_n_atom_pairs:    767
  Task      6: my_n_atom_pairs:    765
  Task      7: my_n_atom_pairs:    765
  Task      8: my_n_atom_pairs:    764
  Task      9: my_n_atom_pairs:    764
  Task     10: my_n_atom_pairs:    391
  Task     11: my_n_atom_pairs:    391
  Task     12: my_n_atom_pairs:    758
  Task     13: my_n_atom_pairs:    758
  Task     14: my_n_atom_pairs:    758
  Task     15: my_n_atom_pairs:    758
  Task     16: my_n_atom_pairs:    761
  Task     17: my_n_atom_pairs:    761
  Task     18: my_n_atom_pairs:    386
  Task     19: my_n_atom_pairs:    386
  Task     20: my_n_atom_pairs:    757
  Task     21: my_n_atom_pairs:    757
  Task     22: my_n_atom_pairs:    760
  Task     23: my_n_atom_pairs:    760
  Task     24: my_n_atom_pairs:    775
  Task     25: my_n_atom_pairs:    775
  Task     26: my_n_atom_pairs:    769
  Task     27: my_n_atom_pairs:    769
  Task     28: my_n_atom_pairs:    767
  Task     29: my_n_atom_pairs:    767
  Task     30: my_n_atom_pairs:    391
  Task     31: my_n_atom_pairs:    391
  Task     32: my_n_atom_pairs:    767
  Task     33: my_n_atom_pairs:    767
  Task     34: my_n_atom_pairs:    764
  Task     35: my_n_atom_pairs:    764
  Task     36: my_n_atom_pairs:    760
  Task     37: my_n_atom_pairs:    760
  Task     38: my_n_atom_pairs:    779
  Task     39: my_n_atom_pairs:    779
  Task      0: my_n_atom_pairs:    763
  Task      1: my_n_atom_pairs:    763
  Task      2: my_n_atom_pairs:    392
  Task      3: my_n_atom_pairs:    392
  Task      4: my_n_atom_pairs:    767
  Task      5: my_n_atom_pairs:    767
  Task      6: my_n_atom_pairs:    765
  Task      7: my_n_atom_pairs:    765
  Task      8: my_n_atom_pairs:    764
  Task      9: my_n_atom_pairs:    764
  Task     10: my_n_atom_pairs:    391
  Task     11: my_n_atom_pairs:    391
  Task     12: my_n_atom_pairs:    758
  Task     13: my_n_atom_pairs:    758
  Task     14: my_n_atom_pairs:    758
  Task     15: my_n_atom_pairs:    758
  Task     16: my_n_atom_pairs:    761
  Task     17: my_n_atom_pairs:    761
  Task     18: my_n_atom_pairs:    386
  Task     19: my_n_atom_pairs:    386
  Task     20: my_n_atom_pairs:    757
  Task     21: my_n_atom_pairs:    757
  Task     22: my_n_atom_pairs:    760
  Task     23: my_n_atom_pairs:    760
  Task     24: my_n_atom_pairs:    775
  Task     25: my_n_atom_pairs:    775
  Task     26: my_n_atom_pairs:    769
  Task     27: my_n_atom_pairs:    769
  Task     28: my_n_atom_pairs:    767
  Task     29: my_n_atom_pairs:    767
  Task     30: my_n_atom_pairs:    391
  Task     31: my_n_atom_pairs:    391
  Task     32: my_n_atom_pairs:    767
  Task     33: my_n_atom_pairs:    767
  Task     34: my_n_atom_pairs:    764
  Task     35: my_n_atom_pairs:    764
  Task     36: my_n_atom_pairs:    760
  Task     37: my_n_atom_pairs:    760
  Task     38: my_n_atom_pairs:    779
  Task     39: my_n_atom_pairs:    779
           1          38
  Calculating k-point    1 to   38 in band :
  Overlap matrix is not singular
  | Lowest and highest eigenvalues :  0.5882E-03,  0.8979E+01
  Finished singularity check of overlap matrix
  | Time :     0.053 s
  Starting ELPA eigensolver
  Finished Cholesky decomposition
  | Time :     0.015 s
  Finished transformation to standard eigenproblem
  | Time :     0.024 s
  Finished solving standard eigenproblem
  | Time :     0.083 s
  Finished back-transformation of eigenvectors
  | Time :     0.011 s

 Writing k-points            1  to            2  of band            1
 Writing k-points            3  to            4  of band            2
 Writing k-points            5  to            6  of band            3
 Writing k-points            7  to            8  of band            4
 Writing k-points            9  to           10  of band            5
 Writing k-points           11  to           12  of band            6
 Writing k-points           13  to           14  of band            7
 Writing k-points           15  to           16  of band            8
 Writing k-points           17  to           18  of band            9
 Writing k-points           19  to           20  of band           10
 Writing k-points           21  to           22  of band           11
 Writing k-points           23  to           24  of band           12
 Writing k-points           25  to           26  of band           13
 Writing k-points           27  to           28  of band           14
 Writing k-points           29  to           30  of band           15
 Writing k-points           31  to           32  of band           16
 Writing k-points           33  to           34  of band           17
 Writing k-points           35  to           36  of band           18
 Writing k-points           37  to           38  of band           19
  "Band gap" along reciprocal space direction number:    1
  | Lowest unoccupied state:      -5.29461994 eV
  | Highest occupied state :      -7.14727710 eV
  | Energy difference      :       1.85265716 eV

  "Band gap" of total set of bands:
  | Lowest unoccupied state:      -5.29461994 eV
  | Highest occupied state :      -7.14727710 eV
  | Energy difference      :       1.85265716 eV


  Band Structure                                          :  max(cpu_time) wall_clock(cpu1)
  | Total Time                                            :          0.596            0.611
------------------------------------------------------------

------------------------------------------------------------------------------
  Final output of selected total energy values:

  The following output summarizes some interesting total energy values
  at the end of a run (AFTER all relaxation, molecular dynamics, etc.).

  | Total energy of the DFT / Hartree-Fock s.c.f. calculation      :         -46066.331197060 eV
  | Final zero-broadening corrected energy (caution - metals only) :         -46066.331197060 eV
  | For reference only, the value of 1 Hartree used in FHI-aims is :             27.211384500 eV
  | For reference only, the overall average (free atom contribution
  | + realspace contribution) of the electrostatic potential after
  | s.c.f. convergence is                                          :             -8.520357325 eV

  Before relying on these values, please be sure to understand exactly which
  total energy value is referred to by a given number. Different objects may
  all carry the same name 'total energy'. Definitions:

  Total energy of the DFT / Hartree-Fock s.c.f. calculation:
  | Note that this energy does not include ANY quantities calculated after the
  | s.c.f. cycle, in particular not ANY RPA, MP2, etc. many-body perturbation terms.

  Final zero-broadening corrected energy:
  | For metallic systems only, a broadening of the occupation numbers at the Fermi
  | level can be extrapolated back to zero broadening by an electron-gas inspired
  | formula. For all systems that are not real metals, this value can be
  | meaningless and should be avoided.

------------------------------------------------------------------------------
  Methods described in the following list of references were used in this FHI-aims run.
  If you publish the results, please make sure to cite these reference if they apply.
  FHI-aims is an academic code, and for our developers (often, Ph.D. students
  and postdocs), scientific credit in the community is essential.
  Thank you for helping us!

  For any use of FHI-aims, please cite:

    Volker Blum, Ralf Gehrke, Felix Hanke, Paula Havu, Ville Havu,
    Xinguo Ren, Karsten Reuter, and Matthias Scheffler
    'Ab initio molecular simulations with numeric atom-centered orbitals'
    Computer Physics Communications 180, 2175-2196 (2009)
    http://doi.org/10.1016/j.cpc.2009.06.022


  For Hartree-Fock, hybrid functionals, or many-body perturbation theory used in your run, please cite:

    Xinguo Ren, Patrick Rinke, Volker Blum, Juergen Wieferink, Alex Tkatchenko,
    Andrea Sanfilippo, Karsten Reuter, and Matthias Scheffler,
    'Resolution-of-identity approach to Hartree-Fock, hybrid density functionals,
    RPA, MP2, and GW with numeric atom-centered orbital basis functions'
    New Journal of Physics 14, 053020 (2012).
    http://doi.org/10.1088/1367-2630/14/5/053020


  The provided symmetry information was generated with SPGlib:

    Atsushi Togo, Yusuke Seto, Dimitar Pashov
    SPGlib 1.7.3 obtained from http://spglib.sourceforge.net
    Copyright (C) 2008 Atsushi Togo


  The ELSI infrastructure was used in your run to solve the Kohn-Sham electronic structure.
  Please check out http://elsi-interchange.org to learn more.
  If scalability is important for your project, please acknowledge ELSI by citing:

    V. W-z. Yu, F. Corsetti, A. Garcia, W. P. Huhn, M. Jacquelin, W. Jia,
    B. Lange, L. Lin, J. Lu, W. Mi, A. Seifitokaldani, A. Vazquez-Mayagoitia,
    C. Yang, H. Yang, and V. Blum
    'ELSI: A unified software interface for Kohn-Sham electronic structure solvers'
    Computer Physics Communications 222, 267-285 (2018).
    http://doi.org/10.1016/j.cpc.2017.09.007


  For the real-space grid partitioning and parallelization used in this calculation, please cite:

    Ville Havu, Volker Blum, Paula Havu, and Matthias Scheffler,
    'Efficient O(N) integration for all-electron electronic structure calculation'
    'using numerically tabulated basis functions'
    Journal of Computational Physics 228, 8367-8379 (2009).
    http://doi.org/10.1016/j.jcp.2009.08.008


  The high-level electronic structure method used in your calculation
  employed our efficient localized resolution of identity for the Coulomb operator.
  Some calculations, especially large-scale hybrid density functional theory,
  are only possible thanks to this development. For this feature, please cite:

    Arvid Ihrig, Juergen Wieferink, Igor Ying Zhang, Matti Ropo, Xinguo Ren,
    Patrick Rinke, Matthias Scheffler, and Volker Blum,
    'Accurate localized resolution of identity approach for linear-scaling
    hybrid density functionals and for many-body perturbation theory'
    New Journal of Physics 117, 093020 (2015).
    http://doi.org/10.1088/1367-2630/17/9/093020

  Of course, there are many other important community references, e.g., those cited in the
  above references. Our list is limited to references that describe implementations in the
  FHI-aims code. The reason is purely practical (length of this list) - please credit others as well.

------------------------------------------------------------
          Leaving FHI-aims.
          Date     :  20240229, Time     :  180421.598

          Computational steps:
          | Number of self-consistency cycles          :           25
          | Number of SCF (re)initializations          :            1

          Detailed time accounting                     :  max(cpu_time)    wall_clock(cpu1)
          | Total time                                  :       90.790 s          90.803 s
          | Preparation time                            :        0.107 s           0.104 s
          | Boundary condition initalization            :        0.070 s           0.069 s
          | Grid partitioning                           :        0.162 s           0.162 s
          | Preloading free-atom quantities on grid     :        0.116 s           0.116 s
          | Free-atom superposition energy              :        0.011 s           0.011 s
          | Total time for integrations                 :        1.549 s           1.546 s
          | Product basis setup: Total time             :       14.107 s          14.103 s
          | Total time evaluating exchange matrix       :       61.630 s          61.492 s
          | Total time for solution of K.-S. equations  :        4.363 s           4.352 s
          | Total time for density & force components   :        3.476 s           3.472 s
          | Total time for mixing                       :        0.029 s           0.025 s
          | Total time for Hartree multipole update     :        0.138 s           0.139 s
          | Total time for Hartree multipole sum        :        3.725 s           3.712 s
          | Total time for total energy evaluation      :        0.056 s           0.062 s
          | Total time NSC force correction             :        0.406 s           0.406 s
          | Total time for scaled ZORA corrections      :        0.000 s           0.000 s
          | Total time for band structures, DOS         :        0.610 s           0.611 s

          Partial memory accounting:
          | Residual value for overall tracked memory usage across tasks:     0.000000 MB (should be 0.000000 MB)
          | Peak values for overall tracked memory usage:
          |   Minimum:      116.872 MB (on task  42 after allocating tmp2_aux_mem)
          |   Maximum:      219.986 MB (on task 495 after allocating tmp2_aux_mem)
          |   Average:      138.163 MB
          | Largest tracked array allocation:
          |   Minimum:       17.287 MB (ovlp3fn2 on task 522)
          |   Maximum:       38.169 MB (ovlp3fn2 on task  14)
          |   Average:       24.469 MB
          Note:  These values currently only include a subset of arrays which are explicitly tracked.
          The "true" memory usage will be greater.

          Have a nice day.
------------------------------------------------------------
